
.Version 9.4.2 of ABINIT 
.(MPI version, prepared for a x86_64_linux_intel19.1 computer) 

.Copyright (C) 1998-2021 ABINIT group . 
 ABINIT comes with ABSOLUTELY NO WARRANTY.
 It is free software, and you are welcome to redistribute it
 under certain conditions (GNU General Public License,
 see ~abinit/COPYING or http://www.gnu.org/copyleft/gpl.txt).

 ABINIT is a project of the Universite Catholique de Louvain,
 Corning Inc. and other collaborators, see ~abinit/doc/developers/contributors.txt .
 Please read https://docs.abinit.org/theory/acknowledgments for suggested
 acknowledgments of the ABINIT effort.
 For more information, see https://www.abinit.org .

.Starting date : Wed 25 Aug 2021.
- ( at 07h08 )
  
- input  file    -> /scratch/users/j/b/jbouq/LumiWork_tuto/delta_SCF_no_BS/flow_deltaSCF/w0/t5/run.abi
- output file    -> /scratch/users/j/b/jbouq/LumiWork_tuto/delta_SCF_no_BS/flow_deltaSCF/w0/t5/run.abo
- root for input  files -> /scratch/users/j/b/jbouq/LumiWork_tuto/delta_SCF_no_BS/flow_deltaSCF/w0/t5/indata/in
- root for output files -> /scratch/users/j/b/jbouq/LumiWork_tuto/delta_SCF_no_BS/flow_deltaSCF/w0/t5/outdata/out
 
- inpspheads : Reading pseudopotential header in XML form from 
-   /home/ucl/modl/jbouq/psps_paw_pbe/Eu.GGA_PBE-JTH.xml
- inpspheads : Reading pseudopotential header in XML form from 
-   /home/ucl/modl/jbouq/psps_paw_pbe/Sr.GGA_PBE-JTH.xml
- inpspheads : Reading pseudopotential header in XML form from 
-   /home/ucl/modl/jbouq/psps_paw_pbe/Li.GGA_PBE-JTH.xml
- inpspheads : Reading pseudopotential header in XML form from 
-   /home/ucl/modl/jbouq/psps_paw_pbe/Al.GGA_PBE-JTH.xml
- inpspheads : Reading pseudopotential header in XML form from 
-   /home/ucl/modl/jbouq/psps_paw_pbe/N.GGA_PBE-JTH.xml
- inpspheads : Reading pseudopotential header in XML form from 
-   /home/ucl/modl/jbouq/psps_paw_pbe/O.GGA_PBE-JTH.xml
 
 Symmetries : space group P2/m (# 10); Bravais mP (primitive monocl.)
================================================================================
 Values of the parameters that define the memory need of the present run
     intxc =       0    ionmov =       0      iscf =      17    lmnmax =      32
     lnmax =       8     mgfft =      90  mpssoang =       4    mqgrid =    5989
     natom =      72  nloc_mem =       2    nspden =       2   nspinor =       1
    nsppol =       2      nsym =       4    n1xccc =       1    ntypat =       6
    occopt =       2   xclevel =       2
-    mband =         204        mffmem =           1         mkmem =           1
       mpw =        1624          nfft =       29160          nkpt =           2
Pmy_natom=        18
 PAW method is used; the additional fine FFT grid is defined by:
   mgfftf=       120    nfftf =     76800
================================================================================
P This job should need less than                     105.119 Mbytes of memory.
  Rough estimation (10% accuracy) of disk space for files :
_ WF disk file :    202.209 Mbytes ; DEN or POT disk file :      1.174 Mbytes.
================================================================================
 
--------------------------------------------------------------------------------
------------- Echo of variables that govern the present computation ------------
--------------------------------------------------------------------------------
-
- outvars: echo of selected default values                                      
-   iomode0 =  0 , fftalg0 =512 , wfoptalg0 = 10
-
- outvars: echo of global parameters not present in the input file              
-  max_nthreads =    0
-
 -outvars: echo values of preprocessed input variables --------
-          iomode           1
            acell      1.0000000000E+00  1.0000000000E+00  1.0000000000E+00 Bohr
              amu      1.51965000E+02  8.76200000E+01  6.94100000E+00
                       2.69815390E+01  1.40067400E+01  1.59994000E+01
           bandpp          68
          chkprim           0
      chksymbreak           0
     densfor_pred           6
           diemac      5.00000000E+00
             ecut      1.50000000E+01 Hartree
-          fftalg         401
           irdden           1
              ixc     -101130
            jpawu      2.57245278E-02  0.00000000E+00  0.00000000E+00  0.00000000E+00  0.00000000E+00  0.00000000E+00 Hartree
              kpt      2.50000000E-01  2.50000000E-01  2.50000000E-01
                      -2.50000000E-01  2.50000000E-01  2.50000000E-01
         kptrlatt        2    0    0      0    2    0      0    0    2
          kptrlen      3.02779499E+01
            lpawu           3      -1      -1      -1      -1      -1
P           mkmem           1
            natom          72
            nband         204     204     204     204
            ngfft          54      60      90
          ngfftdg          80      80     120
             nkpt           2
-           npfft          10
-        np_spkpt           4
           nspden           2
           nsppol           2
            nstep         100
             nsym           4
           ntypat           6
              occ      1.000000  1.000000  1.000000  1.000000  1.000000  1.000000
                       1.000000  1.000000  1.000000  1.000000  1.000000  1.000000
                       1.000000  1.000000  1.000000  1.000000  1.000000  1.000000
                       1.000000  1.000000  1.000000  1.000000  1.000000  1.000000
                       1.000000  1.000000  1.000000  1.000000  1.000000  1.000000
                       1.000000  1.000000  1.000000  1.000000  1.000000  1.000000
                       1.000000  1.000000  1.000000  1.000000  1.000000  1.000000
                       1.000000  1.000000  1.000000  1.000000  1.000000  1.000000
                       1.000000  1.000000  1.000000  1.000000  1.000000  1.000000
                       1.000000  1.000000  1.000000  1.000000  1.000000  1.000000
                       1.000000  1.000000  1.000000  1.000000  1.000000  1.000000
                       1.000000  1.000000  1.000000  1.000000  1.000000  1.000000
                       1.000000  1.000000  1.000000  1.000000  1.000000  1.000000
                       1.000000  1.000000  1.000000  1.000000  1.000000  1.000000
                       1.000000  1.000000  1.000000  1.000000  1.000000  1.000000
                       1.000000  1.000000  1.000000  1.000000  1.000000  1.000000
                       1.000000  1.000000  1.000000  1.000000  1.000000  1.000000
                       1.000000  1.000000  1.000000  1.000000  1.000000  1.000000
                       1.000000  1.000000  1.000000  1.000000  1.000000  1.000000
                       1.000000  1.000000  1.000000  1.000000  1.000000  1.000000
                       1.000000  1.000000  1.000000  1.000000  1.000000  1.000000
                       1.000000  1.000000  1.000000  1.000000  1.000000  1.000000
                       1.000000  1.000000  1.000000  1.000000  1.000000  1.000000
                       1.000000  1.000000  1.000000  1.000000  1.000000  1.000000
                       1.000000  1.000000  1.000000  1.000000  1.000000  1.000000
                       1.000000  1.000000  1.000000  1.000000  1.000000  1.000000
                       1.000000  1.000000  1.000000  1.000000  1.000000  1.000000
                       1.000000  1.000000  1.000000  1.000000  1.000000  1.000000
                       1.000000  1.000000  1.000000  1.000000  1.000000  1.000000
                       1.000000  1.000000  1.000000  1.000000  1.000000  1.000000
                       1.000000  1.000000  1.000000  0.000000  0.000000  0.000000
                       0.000000  0.000000  0.000000  0.000000  0.000000  0.000000
                       0.000000  0.000000  0.000000  0.000000  0.000000  0.000000
                       0.000000  0.000000  0.000000  0.000000  0.000000  0.000000
                       1.000000  1.000000  1.000000  1.000000  1.000000  1.000000
                       1.000000  1.000000  1.000000  1.000000  1.000000  1.000000
                       1.000000  1.000000  1.000000  1.000000  1.000000  1.000000
                       1.000000  1.000000  1.000000  1.000000  1.000000  1.000000
                       1.000000  1.000000  1.000000  1.000000  1.000000  1.000000
                       1.000000  1.000000  1.000000  1.000000  1.000000  1.000000
                       1.000000  1.000000  1.000000  1.000000  1.000000  1.000000
                       1.000000  1.000000  1.000000  1.000000  1.000000  1.000000
                       1.000000  1.000000  1.000000  1.000000  1.000000  1.000000
                       1.000000  1.000000  1.000000  1.000000  1.000000  1.000000
                       1.000000  1.000000  1.000000  1.000000  1.000000  1.000000
                       1.000000  1.000000  1.000000  1.000000  1.000000  1.000000
                       1.000000  1.000000  1.000000  1.000000  1.000000  1.000000
                       1.000000  1.000000  1.000000  1.000000  1.000000  1.000000
                       1.000000  1.000000  1.000000  1.000000  1.000000  1.000000
                       1.000000  1.000000  1.000000  1.000000  1.000000  1.000000
                       1.000000  1.000000  1.000000  1.000000  1.000000  1.000000
                       1.000000  1.000000  1.000000  1.000000  1.000000  1.000000
                       1.000000  1.000000  1.000000  1.000000  1.000000  1.000000
                       1.000000  1.000000  1.000000  1.000000  1.000000  1.000000
                       1.000000  1.000000  1.000000  1.000000  1.000000  1.000000
                       1.000000  1.000000  1.000000  1.000000  1.000000  1.000000
                       1.000000  1.000000  1.000000  1.000000  1.000000  1.000000
                       1.000000  1.000000  1.000000  1.000000  1.000000  1.000000
                       1.000000  1.000000  1.000000  1.000000  1.000000  1.000000
                       1.000000  1.000000  1.000000  1.000000  1.000000  1.000000
                       1.000000  1.000000  1.000000  1.000000  1.000000  1.000000
                       1.000000  1.000000  1.000000  1.000000  1.000000  1.000000
                       1.000000  1.000000  1.000000  1.000000  1.000000  1.000000
                       1.000000  1.000000  1.000000  1.000000  1.000000  1.000000
                       1.000000  1.000000  1.000000  0.000000  0.000000  0.000000
                       0.000000  0.000000  0.000000  0.000000  0.000000  0.000000
                       0.000000  0.000000  0.000000  0.000000  0.000000  0.000000
                       0.000000  0.000000  0.000000  0.000000  0.000000  0.000000
                       1.000000  1.000000  1.000000  1.000000  1.000000  1.000000
                       1.000000  1.000000  1.000000  1.000000  1.000000  1.000000
                       1.000000  1.000000  1.000000  1.000000  1.000000  1.000000
                       1.000000  1.000000  1.000000  1.000000  1.000000  1.000000
                       1.000000  1.000000  1.000000  1.000000  1.000000  1.000000
                       1.000000  1.000000  1.000000  1.000000  1.000000  1.000000
                       1.000000  1.000000  1.000000  1.000000  1.000000  1.000000
                       1.000000  1.000000  1.000000  1.000000  1.000000  1.000000
                       1.000000  1.000000  1.000000  1.000000  1.000000  1.000000
                       1.000000  1.000000  1.000000  1.000000  1.000000  1.000000
                       1.000000  1.000000  1.000000  1.000000  1.000000  1.000000
                       1.000000  1.000000  1.000000  1.000000  1.000000  1.000000
                       1.000000  1.000000  1.000000  1.000000  1.000000  1.000000
                       1.000000  1.000000  1.000000  1.000000  1.000000  1.000000
                       1.000000  1.000000  1.000000  1.000000  1.000000  1.000000
                       1.000000  1.000000  1.000000  1.000000  1.000000  1.000000
                       1.000000  1.000000  1.000000  1.000000  1.000000  1.000000
                       1.000000  1.000000  1.000000  1.000000  1.000000  1.000000
                       1.000000  1.000000  1.000000  1.000000  1.000000  1.000000
                       1.000000  1.000000  1.000000  1.000000  1.000000  1.000000
                       1.000000  1.000000  1.000000  1.000000  1.000000  1.000000
                       1.000000  1.000000  1.000000  1.000000  1.000000  1.000000
                       1.000000  1.000000  1.000000  1.000000  1.000000  1.000000
                       1.000000  1.000000  1.000000  1.000000  1.000000  1.000000
                       1.000000  1.000000  1.000000  1.000000  1.000000  1.000000
                       1.000000  1.000000  1.000000  1.000000  1.000000  1.000000
                       1.000000  1.000000  1.000000  1.000000  1.000000  1.000000
                       1.000000  1.000000  1.000000  1.000000  1.000000  1.000000
                       1.000000  1.000000  1.000000  1.000000  1.000000  1.000000
                       1.000000  1.000000  0.000000  0.000000  0.000000  0.000000
                       0.000000  0.000000  0.000000  0.000000  0.000000  0.000000
                       0.000000  0.000000  0.000000  0.000000  0.000000  0.000000
                       0.000000  0.000000  0.000000  0.000000  0.000000  0.000000
                       0.000000  0.000000  0.000000  0.000000  0.000000  0.000000
                       1.000000  1.000000  1.000000  1.000000  1.000000  1.000000
                       1.000000  1.000000  1.000000  1.000000  1.000000  1.000000
                       1.000000  1.000000  1.000000  1.000000  1.000000  1.000000
                       1.000000  1.000000  1.000000  1.000000  1.000000  1.000000
                       1.000000  1.000000  1.000000  1.000000  1.000000  1.000000
                       1.000000  1.000000  1.000000  1.000000  1.000000  1.000000
                       1.000000  1.000000  1.000000  1.000000  1.000000  1.000000
                       1.000000  1.000000  1.000000  1.000000  1.000000  1.000000
                       1.000000  1.000000  1.000000  1.000000  1.000000  1.000000
                       1.000000  1.000000  1.000000  1.000000  1.000000  1.000000
                       1.000000  1.000000  1.000000  1.000000  1.000000  1.000000
                       1.000000  1.000000  1.000000  1.000000  1.000000  1.000000
                       1.000000  1.000000  1.000000  1.000000  1.000000  1.000000
                       1.000000  1.000000  1.000000  1.000000  1.000000  1.000000
                       1.000000  1.000000  1.000000  1.000000  1.000000  1.000000
                       1.000000  1.000000  1.000000  1.000000  1.000000  1.000000
                       1.000000  1.000000  1.000000  1.000000  1.000000  1.000000
                       1.000000  1.000000  1.000000  1.000000  1.000000  1.000000
                       1.000000  1.000000  1.000000  1.000000  1.000000  1.000000
                       1.000000  1.000000  1.000000  1.000000  1.000000  1.000000
                       1.000000  1.000000  1.000000  1.000000  1.000000  1.000000
                       1.000000  1.000000  1.000000  1.000000  1.000000  1.000000
                       1.000000  1.000000  1.000000  1.000000  1.000000  1.000000
                       1.000000  1.000000  1.000000  1.000000  1.000000  1.000000
                       1.000000  1.000000  1.000000  1.000000  1.000000  1.000000
                       1.000000  1.000000  1.000000  1.000000  1.000000  1.000000
                       1.000000  1.000000  1.000000  1.000000  1.000000  1.000000
                       1.000000  1.000000  1.000000  1.000000  1.000000  1.000000
                       1.000000  1.000000  1.000000  1.000000  1.000000  1.000000
                       1.000000  1.000000  0.000000  0.000000  0.000000  0.000000
                       0.000000  0.000000  0.000000  0.000000  0.000000  0.000000
                       0.000000  0.000000  0.000000  0.000000  0.000000  0.000000
                       0.000000  0.000000  0.000000  0.000000  0.000000  0.000000
                       0.000000  0.000000  0.000000  0.000000  0.000000  0.000000
           occopt           2
        paral_kgb           1
        pawecutdg      3.00000000E+01 Hartree
         pawmixdg           1
            prtwf          -1
            rprim      1.5139044928E+01  3.8157104200E-02  0.0000000000E+00
                       3.8157104200E-02  1.5138926862E+01  0.0000000000E+00
                       0.0000000000E+00  0.0000000000E+00  2.4286034968E+01
           shiftk      5.00000000E-01  5.00000000E-01  5.00000000E-01
          spgroup          10
           spinat      0.0000000000E+00  0.0000000000E+00  7.0000000000E+00
                       0.0000000000E+00  0.0000000000E+00  0.0000000000E+00
                       0.0000000000E+00  0.0000000000E+00  0.0000000000E+00
                       0.0000000000E+00  0.0000000000E+00  0.0000000000E+00
                       0.0000000000E+00  0.0000000000E+00  0.0000000000E+00
                       0.0000000000E+00  0.0000000000E+00  0.0000000000E+00
                       0.0000000000E+00  0.0000000000E+00  0.0000000000E+00
                       0.0000000000E+00  0.0000000000E+00  0.0000000000E+00
                       0.0000000000E+00  0.0000000000E+00  0.0000000000E+00
                       0.0000000000E+00  0.0000000000E+00  0.0000000000E+00
                       0.0000000000E+00  0.0000000000E+00  0.0000000000E+00
                       0.0000000000E+00  0.0000000000E+00  0.0000000000E+00
                       0.0000000000E+00  0.0000000000E+00  0.0000000000E+00
                       0.0000000000E+00  0.0000000000E+00  0.0000000000E+00
                       0.0000000000E+00  0.0000000000E+00  0.0000000000E+00
                       0.0000000000E+00  0.0000000000E+00  0.0000000000E+00
                       0.0000000000E+00  0.0000000000E+00  0.0000000000E+00
                       0.0000000000E+00  0.0000000000E+00  0.0000000000E+00
                       0.0000000000E+00  0.0000000000E+00  0.0000000000E+00
                       0.0000000000E+00  0.0000000000E+00  0.0000000000E+00
                       0.0000000000E+00  0.0000000000E+00  0.0000000000E+00
                       0.0000000000E+00  0.0000000000E+00  0.0000000000E+00
                       0.0000000000E+00  0.0000000000E+00  0.0000000000E+00
                       0.0000000000E+00  0.0000000000E+00  0.0000000000E+00
                       0.0000000000E+00  0.0000000000E+00  0.0000000000E+00
                       0.0000000000E+00  0.0000000000E+00  0.0000000000E+00
                       0.0000000000E+00  0.0000000000E+00  0.0000000000E+00
                       0.0000000000E+00  0.0000000000E+00  0.0000000000E+00
                       0.0000000000E+00  0.0000000000E+00  0.0000000000E+00
                       0.0000000000E+00  0.0000000000E+00  0.0000000000E+00
                       0.0000000000E+00  0.0000000000E+00  0.0000000000E+00
                       0.0000000000E+00  0.0000000000E+00  0.0000000000E+00
                       0.0000000000E+00  0.0000000000E+00  0.0000000000E+00
                       0.0000000000E+00  0.0000000000E+00  0.0000000000E+00
                       0.0000000000E+00  0.0000000000E+00  0.0000000000E+00
                       0.0000000000E+00  0.0000000000E+00  0.0000000000E+00
                       0.0000000000E+00  0.0000000000E+00  0.0000000000E+00
                       0.0000000000E+00  0.0000000000E+00  0.0000000000E+00
                       0.0000000000E+00  0.0000000000E+00  0.0000000000E+00
                       0.0000000000E+00  0.0000000000E+00  0.0000000000E+00
                       0.0000000000E+00  0.0000000000E+00  0.0000000000E+00
                       0.0000000000E+00  0.0000000000E+00  0.0000000000E+00
                       0.0000000000E+00  0.0000000000E+00  0.0000000000E+00
                       0.0000000000E+00  0.0000000000E+00  0.0000000000E+00
                       0.0000000000E+00  0.0000000000E+00  0.0000000000E+00
                       0.0000000000E+00  0.0000000000E+00  0.0000000000E+00
                       0.0000000000E+00  0.0000000000E+00  0.0000000000E+00
                       0.0000000000E+00  0.0000000000E+00  0.0000000000E+00
                       0.0000000000E+00  0.0000000000E+00  0.0000000000E+00
                       0.0000000000E+00  0.0000000000E+00  0.0000000000E+00
                       0.0000000000E+00  0.0000000000E+00  0.0000000000E+00
                       0.0000000000E+00  0.0000000000E+00  0.0000000000E+00
                       0.0000000000E+00  0.0000000000E+00  0.0000000000E+00
                       0.0000000000E+00  0.0000000000E+00  0.0000000000E+00
                       0.0000000000E+00  0.0000000000E+00  0.0000000000E+00
                       0.0000000000E+00  0.0000000000E+00  0.0000000000E+00
                       0.0000000000E+00  0.0000000000E+00  0.0000000000E+00
                       0.0000000000E+00  0.0000000000E+00  0.0000000000E+00
                       0.0000000000E+00  0.0000000000E+00  0.0000000000E+00
                       0.0000000000E+00  0.0000000000E+00  0.0000000000E+00
                       0.0000000000E+00  0.0000000000E+00  0.0000000000E+00
                       0.0000000000E+00  0.0000000000E+00  0.0000000000E+00
                       0.0000000000E+00  0.0000000000E+00  0.0000000000E+00
                       0.0000000000E+00  0.0000000000E+00  0.0000000000E+00
                       0.0000000000E+00  0.0000000000E+00  0.0000000000E+00
                       0.0000000000E+00  0.0000000000E+00  0.0000000000E+00
                       0.0000000000E+00  0.0000000000E+00  0.0000000000E+00
                       0.0000000000E+00  0.0000000000E+00  0.0000000000E+00
                       0.0000000000E+00  0.0000000000E+00  0.0000000000E+00
                       0.0000000000E+00  0.0000000000E+00  0.0000000000E+00
                       0.0000000000E+00  0.0000000000E+00  0.0000000000E+00
                       0.0000000000E+00  0.0000000000E+00  0.0000000000E+00
           symrel      1  0  0   0  1  0   0  0  1      -1  0  0   0 -1  0   0  0 -1
                      -1  0  0   0 -1  0   0  0  1       1  0  0   0  1  0   0  0 -1
            tnons      0.0000000  0.0000000  0.0000000    -0.0000000 -0.0000000  0.2500000
                      -0.0000000 -0.0000000  0.0000000     0.0000000  0.0000000  0.2500000
           toldfe      1.00000000E-08 Hartree
            typat      1  2  2  2  2  2  2  2  3  3  3  3  3  3  3  3  3  3  3  3
                       3  3  3  3  4  4  4  4  4  4  4  4  4  4  4  4  4  4  4  4
                       5  5  5  5  5  5  5  5  5  5  5  5  5  5  5  5  6  6  6  6
                       6  6  6  6  6  6  6  6  6  6  6  6
            upawu      2.57245278E-01  0.00000000E+00  0.00000000E+00  0.00000000E+00  0.00000000E+00  0.00000000E+00 Hartree
          usepawu           1
           useylm           1
         wfoptalg         114
              wtk        0.50000    0.50000
           xangst      4.0056187680E+00  1.0095934944E-02  1.6064520240E+00
                       4.0056187680E+00  1.0095934944E-02  4.7975601448E+00
                       4.0056187680E+00  1.0095934944E-02  8.0322601200E+00
                       4.0056187680E+00  1.0095934944E-02  1.1266960095E+01
                       1.0095934944E-02  4.0055875290E+00 -6.3298978016E-04
                       1.0095934944E-02  4.0055875290E+00  3.2135370378E+00
                       1.0095934944E-02  4.0055875290E+00  6.4282873129E+00
                       1.0095934944E-02  4.0055875290E+00  9.6362329272E+00
                       1.0186555921E+00  6.5960341549E+00  1.6064520240E+00
                       1.0264806291E+00  6.5984936124E+00  4.8143760797E+00
                       1.0213180372E+00  6.5906890203E+00  8.0322601200E+00
                       1.0264806291E+00  6.5984936124E+00  1.1250144160E+01
                       7.0127738138E+00  1.4353327731E+00  1.6064520240E+00
                       7.0049487767E+00  1.4328733155E+00  4.8143760797E+00
                       7.0101113686E+00  1.4406779076E+00  8.0322601200E+00
                       7.0049487767E+00  1.4328733155E+00  1.1250144160E+01
                       1.4193887833E+00  1.0176058536E+00  5.3445582382E-03
                       1.4193887833E+00  1.0176058536E+00  3.2075594898E+00
                       1.4230763744E+00  1.0131939007E+00  6.4266279829E+00
                       1.4230763744E+00  1.0131939007E+00  9.6378922572E+00
                       6.6120406225E+00  7.0137610743E+00  5.3445582382E-03
                       6.6120406225E+00  7.0137610743E+00  3.2075594898E+00
                       6.6083530315E+00  7.0181730273E+00  6.4266279829E+00
                       6.6083530315E+00  7.0181730273E+00  9.6378922572E+00
                       2.8459457086E+00  5.4914837829E+00  1.4547768642E-02
                       2.8459457086E+00  5.4914837829E+00  3.1983562794E+00
                       2.8427543352E+00  5.4912052813E+00  6.4218349199E+00
                       2.8427543352E+00  5.4912052813E+00  9.6426853201E+00
                       5.1854836972E+00  2.5398831450E+00  1.4547768642E-02
                       5.1854836972E+00  2.5398831450E+00  3.1983562794E+00
                       5.1886750706E+00  2.5401616467E+00  6.4218349199E+00
                       5.1886750706E+00  2.5401616467E+00  9.6426853201E+00
                       2.5334400454E+00  2.8222455532E+00  1.6064520240E+00
                       2.5436342875E+00  2.8262977223E+00  4.8154441621E+00
                       2.5411977697E+00  2.8400736789E+00  8.0322601200E+00
                       2.5436342875E+00  2.8262977223E+00  1.1249076078E+01
                       5.4979893604E+00  5.2091213748E+00  1.6064520240E+00
                       5.4877951183E+00  5.2050692056E+00  4.8154441621E+00
                       5.4902316361E+00  5.1912932491E+00  8.0322601200E+00
                       5.4877951183E+00  5.2050692056E+00  1.1249076078E+01
                       4.6981272331E+00  5.8976196512E+00  1.6136936527E-02
                       4.6981272331E+00  5.8976196512E+00  3.1967671115E+00
                       4.6995714227E+00  5.8566265002E+00  6.4256633907E+00
                       4.6995714227E+00  5.8566265002E+00  9.6388568494E+00
                       3.3333021727E+00  2.1337472768E+00  1.6136936527E-02
                       3.3333021727E+00  2.1337472768E+00  3.1967671115E+00
                       3.3318579831E+00  2.1747404277E+00  6.4256633907E+00
                       3.3318579831E+00  2.1747404277E+00  9.6388568494E+00
                       2.1797261611E+00  4.6768281707E+00  1.6064520240E+00
                       2.1907893079E+00  4.6891666651E+00  4.8026781107E+00
                       2.1753161751E+00  4.6960857951E+00  8.0322601200E+00
                       2.1907893079E+00  4.6891666651E+00  1.1261842129E+01
                       5.8517032447E+00  3.3545387572E+00  1.6064520240E+00
                       5.8406400979E+00  3.3422002628E+00  4.8026781107E+00
                       5.8561132308E+00  3.3352811328E+00  8.0322601200E+00
                       5.8406400979E+00  3.3422002628E+00  1.1261842129E+01
                       2.0758004675E+00  7.1660608628E+00  4.2371781155E-02
                       2.0758004675E+00  7.1660608628E+00  3.1705322669E+00
                       2.0458665254E+00  7.1495959057E+00  6.4173682572E+00
                       2.0458665254E+00  7.1495959057E+00  9.6471519829E+00
                       5.9556289384E+00  8.6530606512E-01  4.2371781155E-02
                       5.9556289384E+00  8.6530606512E-01  3.1705322669E+00
                       5.9855628804E+00  8.8177102223E-01  6.4173682572E+00
                       5.9855628804E+00  8.8177102223E-01  9.6471519829E+00
                       8.5710671672E-01  2.0586468035E+00  1.6064520240E+00
                       8.6688282897E-01  2.0589832046E+00  4.8093201910E+00
                       8.6845895766E-01  2.0650104442E+00  8.0322601200E+00
                       8.6688282897E-01  2.0589832046E+00  1.1255200049E+01
                       7.1743226891E+00  5.9727201244E+00  1.6064520240E+00
                       7.1645465768E+00  5.9723837233E+00  4.8093201910E+00
                       7.1629704482E+00  5.9663564838E+00  8.0322601200E+00
                       7.1645465768E+00  5.9723837233E+00  1.1255200049E+01
            xcart      7.5695224642E+00  1.9078552100E-02  3.0357543710E+00
                       7.5695224642E+00  1.9078552100E-02  9.0660747797E+00
                       7.5695224642E+00  1.9078552100E-02  1.5178771855E+01
                       7.5695224642E+00  1.9078552100E-02  2.1291468930E+01
                       1.9078552100E-02  7.5694634311E+00 -1.1961773294E-03
                       1.9078552100E-02  7.5694634311E+00  6.0727049193E+00
                       1.9078552100E-02  7.5694634311E+00  1.2147702525E+01
                       1.9078552100E-02  7.5694634311E+00  1.8209841185E+01
                       1.9249800927E+00  1.2464698116E+01  3.0357543710E+00
                       1.9397672697E+00  1.2469345817E+01  9.0978522914E+00
                       1.9300113849E+00  1.2454597275E+01  1.5178771855E+01
                       1.9397672697E+00  1.2469345817E+01  2.1259691418E+01
                       1.3252221940E+01  2.7123858506E+00  3.0357543710E+00
                       1.3237434763E+01  2.7077381494E+00  9.0978522914E+00
                       1.3247190648E+01  2.7224866911E+00  1.5178771855E+01
                       1.3237434763E+01  2.7077381494E+00  2.1259691418E+01
                       2.6822560766E+00  1.9229963745E+00  1.0099751371E-02
                       2.6822560766E+00  1.9229963745E+00  6.0614089906E+00
                       2.6892246137E+00  1.9146589918E+00  1.2144566846E+01
                       2.6892246137E+00  1.9146589918E+00  1.8212976864E+01
                       1.2494945956E+01  1.3254087592E+01  1.0099751371E-02
                       1.2494945956E+01  1.3254087592E+01  6.0614089906E+00
                       1.2487977419E+01  1.3262424975E+01  1.2144566846E+01
                       1.2487977419E+01  1.3262424975E+01  1.8212976864E+01
                       5.3780579783E+00  1.0377400413E+01  2.7491298577E-02
                       5.3780579783E+00  1.0377400413E+01  6.0440174434E+00
                       5.3720271567E+00  1.0376874121E+01  1.2135509269E+01
                       5.3720271567E+00  1.0376874121E+01  1.8222034441E+01
                       9.7991440543E+00  4.7996835536E+00  2.7491298577E-02
                       9.7991440543E+00  4.7996835536E+00  6.0440174434E+00
                       9.8051748759E+00  4.8002098454E+00  1.2135509269E+01
                       9.8051748759E+00  4.8002098454E+00  1.8222034441E+01
                       4.7875078599E+00  5.3332711752E+00  3.0357543710E+00
                       4.8067721856E+00  5.3409286651E+00  9.0998706746E+00
                       4.8021678342E+00  5.3669614503E+00  1.5178771855E+01
                       4.8067721856E+00  5.3409286651E+00  2.1257673035E+01
                       1.0389694173E+01  9.8438127913E+00  3.0357543710E+00
                       1.0370429847E+01  9.8361553014E+00  9.0998706746E+00
                       1.0375034198E+01  9.8101225162E+00  1.5178771855E+01
                       1.0370429847E+01  9.8361553014E+00  2.1257673035E+01
                       8.8781738081E+00  1.1144885977E+01  3.0494390660E-02
                       8.8781738081E+00  1.1144885977E+01  6.0410143513E+00
                       8.8809029309E+00  1.1067420148E+01  1.2142744030E+01
                       8.8809029309E+00  1.1067420148E+01  1.8214799679E+01
                       6.2990282245E+00  4.0321979899E+00  3.0494390660E-02
                       6.2990282245E+00  4.0321979899E+00  6.0410143513E+00
                       6.2962991017E+00  4.1096638185E+00  1.2142744030E+01
                       6.2962991017E+00  4.1096638185E+00  1.8214799679E+01
                       4.1190854892E+00  8.8379244132E+00  3.0357543710E+00
                       4.1399918069E+00  8.8612407885E+00  9.0757463337E+00
                       4.1107518233E+00  8.8743160494E+00  1.5178771855E+01
                       4.1399918069E+00  8.8612407885E+00  2.1281797376E+01
                       1.1058116543E+01  6.3391595533E+00  3.0357543710E+00
                       1.1037210226E+01  6.3158431780E+00  9.0757463337E+00
                       1.1066450209E+01  6.3027679171E+00  1.5178771855E+01
                       1.1037210226E+01  6.3158431780E+00  2.1281797376E+01
                       3.9226943900E+00  1.3541892482E+01  8.0071062146E-02
                       3.9226943900E+00  1.3541892482E+01  5.9914376798E+00
                       3.8661274374E+00  1.3510778223E+01  1.2127068500E+01
                       3.8661274374E+00  1.3510778223E+01  1.8230475210E+01
                       1.1254507643E+01  1.6351914842E+00  8.0071062146E-02
                       1.1254507643E+01  1.6351914842E+00  5.9914376798E+00
                       1.1311074595E+01  1.6663057439E+00  1.2127068500E+01
                       1.1311074595E+01  1.6663057439E+00  1.8230475210E+01
                       1.6196969613E+00  3.8902786630E+00  3.0357543710E+00
                       1.6381711361E+00  3.8909143689E+00  9.0882980463E+00
                       1.6411495876E+00  3.9023042010E+00  1.5178771855E+01
                       1.6381711361E+00  3.8909143689E+00  2.1269245664E+01
                       1.3557505071E+01  1.1286805303E+01  3.0357543710E+00
                       1.3539030897E+01  1.1286169598E+01  9.0882980463E+00
                       1.3536052445E+01  1.1274779765E+01  1.5178771855E+01
                       1.3539030897E+01  1.1286169598E+01  2.1269245664E+01
             xred      5.0000000000E-01 -2.1684043450E-19  1.2500000000E-01
                       5.0000000000E-01 -2.1684043450E-19  3.7330403220E-01
                       5.0000000000E-01 -2.1684043450E-19  6.2500000000E-01
                       5.0000000000E-01 -2.1684043450E-19  8.7669596780E-01
                      -5.5511151231E-17  5.0000000000E-01 -4.9253710249E-05
                      -5.5511151231E-17  5.0000000000E-01  2.5004925371E-01
                      -5.5511151231E-17  5.0000000000E-01  5.0019291090E-01
                      -5.5511151231E-17  5.0000000000E-01  7.4980708910E-01
                       1.2507891490E-01  8.2303888380E-01  1.2500000000E-01
                       1.2605490490E-01  8.2334342720E-01  3.7461250070E-01
                       1.2541293750E-01  8.2237083210E-01  6.2500000000E-01
                       1.2605490490E-01  8.2334342720E-01  8.7538749930E-01
                       8.7492108510E-01  1.7696111620E-01  1.2500000000E-01
                       8.7394509510E-01  1.7665657280E-01  3.7461250070E-01
                       8.7458706250E-01  1.7762916790E-01  6.2500000000E-01
                       8.7394509510E-01  1.7665657280E-01  8.7538749930E-01
                       1.7685569050E-01  1.2657753690E-01  4.1586662396E-04
                       1.7685569050E-01  1.2657753690E-01  2.4958413338E-01
                       1.7731738380E-01  1.2602564840E-01  5.0006379640E-01
                       1.7731738380E-01  1.2602564840E-01  7.4993620360E-01
                       8.2314430950E-01  8.7342246310E-01  4.1586662396E-04
                       8.2314430950E-01  8.7342246310E-01  2.4958413338E-01
                       8.2268261620E-01  8.7397435160E-01  5.0006379640E-01
                       8.2268261620E-01  8.7397435160E-01  7.4993620360E-01
                       3.5351874240E-01  6.8458691000E-01  1.1319797000E-03
                       3.5351874240E-01  6.8458691000E-01  2.4886802030E-01
                       3.5312046540E-01  6.8455314970E-01  4.9969084230E-01
                       3.5312046540E-01  6.8455314970E-01  7.5030915770E-01
                       6.4648125760E-01  3.1541309000E-01  1.1319797000E-03
                       6.4648125760E-01  3.1541309000E-01  2.4886802030E-01
                       6.4687953460E-01  3.1544685030E-01  4.9969084230E-01
                       6.4687953460E-01  3.1544685030E-01  7.5030915770E-01
                       3.1534987170E-01  3.5149376080E-01  1.2500000000E-01
                       3.1662109770E-01  3.5199637130E-01  3.7469560950E-01
                       3.1631262410E-01  3.5371674130E-01  6.2500000000E-01
                       3.1662109770E-01  3.5199637130E-01  8.7530439050E-01
                       6.8465012830E-01  6.4850623920E-01  1.2500000000E-01
                       6.8337890230E-01  6.4800362870E-01  3.7469560950E-01
                       6.8368737590E-01  6.4628325870E-01  6.2500000000E-01
                       6.8337890230E-01  6.4800362870E-01  8.7530439050E-01
                       5.8459036220E-01  7.3470066950E-01  1.2556348000E-03
                       5.8459036220E-01  7.3470066950E-01  2.4874436520E-01
                       5.8478353100E-01  7.2958318660E-01  4.9998874030E-01
                       5.8478353100E-01  7.2958318660E-01  7.5001125970E-01
                       4.1540963780E-01  2.6529933050E-01  1.2556348000E-03
                       4.1540963780E-01  2.6529933050E-01  2.4874436520E-01
                       4.1521646900E-01  2.7041681340E-01  4.9998874030E-01
                       4.1521646900E-01  2.7041681340E-01  7.5001125970E-01
                       2.7061389100E-01  5.8310596590E-01  1.2500000000E-01
                       2.7199097140E-01  5.8464265540E-01  3.7370226740E-01
                       2.7005735370E-01  5.8551121380E-01  6.2500000000E-01
                       2.7199097140E-01  5.8464265540E-01  8.7629773260E-01
                       7.2938610900E-01  4.1689403410E-01  1.2500000000E-01
                       7.2800902860E-01  4.1535734460E-01  3.7370226740E-01
                       7.2994264630E-01  4.1448878620E-01  6.2500000000E-01
                       7.2800902860E-01  4.1535734460E-01  8.7629773260E-01
                       2.5685816200E-01  8.9386068390E-01  3.2970002000E-03
                       2.5685816200E-01  8.9386068390E-01  2.4670299980E-01
                       2.5312682430E-01  8.9181483990E-01  4.9934328580E-01
                       2.5312682430E-01  8.9181483990E-01  7.5065671420E-01
                       7.4314183800E-01  1.0613931610E-01  3.2970002000E-03
                       7.4314183800E-01  1.0613931610E-01  2.4670299980E-01
                       7.4687317570E-01  1.0818516010E-01  4.9934328580E-01
                       7.4687317570E-01  1.0818516010E-01  7.5065671420E-01
                       1.0634104680E-01  2.5670386230E-01  1.2500000000E-01
                       1.0756124860E-01  2.5674277830E-01  3.7421909580E-01
                       1.0775609330E-01  2.5749464120E-01  6.2500000000E-01
                       1.0756124860E-01  2.5674277830E-01  8.7578090420E-01
                       8.9365895320E-01  7.4329613770E-01  1.2500000000E-01
                       8.9243875140E-01  7.4325722170E-01  3.7421909580E-01
                       8.9224390670E-01  7.4250535880E-01  6.2500000000E-01
                       8.9243875140E-01  7.4325722170E-01  8.7578090420E-01
            znucl       63.00000   38.00000    3.00000   13.00000    7.00000    8.00000
 
================================================================================
 
 chkinp: Checking input parameters for consistency.
 
================================================================================
== DATASET  1 ==================================================================
-   mpi_nproc: 40, omp_nthreads: -1 (-1 if OMP is not activated)
 

--- !DatasetInfo
iteration_state: {dtset: 1, }
dimensions: {natom: 72, nkpt: 2, mband: 204, nsppol: 2, nspinor: 1, nspden: 2, mpw: 1624, }
cutoff_energies: {ecut:  15.0, pawecutdg:  30.0, }
electrons: {nelect:   3.59000000E+02, charge:   0.00000000E+00, occopt:   2.00000000E+00, tsmear:   1.00000000E-02, }
meta: {optdriver: 0, ionmov: 0, optcell: 0, iscf: 17, paral_kgb: 1, }
...

 Real(R)+Recip(G) space primitive vectors, cartesian coordinates (Bohr,Bohr^-1):
 R(1)= 15.1390449  0.0381571  0.0000000  G(1)=  0.0660548 -0.0001665  0.0000000
 R(2)=  0.0381571 15.1389269  0.0000000  G(2)= -0.0001665  0.0660553  0.0000000
 R(3)=  0.0000000  0.0000000 24.2860350  G(3)=  0.0000000  0.0000000  0.0411759
 Unit cell volume ucvol=  5.5660541E+03 bohr^3
 Angles (23,13,12)=  9.00000000E+01  9.00000000E+01  8.97111780E+01 degrees
 
 Coarse grid specifications (used for wave-functions):
 
 getcut: wavevector=  0.0000  0.0000  0.0000  ngfft=  54  60  90
         ecut(hartree)=     15.000   => boxcut(ratio)=   2.04592
 
 Fine grid specifications (used for densities):
 
 getcut: wavevector=  0.0000  0.0000  0.0000  ngfft=  80  80 120
         ecut(hartree)=     30.000   => boxcut(ratio)=   2.00401
 
--- Pseudopotential description ------------------------------------------------
- pspini: atom type   1  psp file is /home/ucl/modl/jbouq/psps_paw_pbe/Eu.GGA_PBE-JTH.xml
- pspatm: opening atomic psp file    /home/ucl/modl/jbouq/psps_paw_pbe/Eu.GGA_PBE-JTH.xml
- pspatm : Reading pseudopotential header in XML form from /home/ucl/modl/jbouq/psps_paw_pbe/Eu.GGA_PBE-JTH.xml
 Pseudopotential format is: paw10
 basis_size (lnmax)=  8 (lmn_size= 32), orbitals=   0   0   1   1   2   2   3   3
 Spheres core radius: rc_sph= 2.52170005
 1 radial meshes are used:
  - mesh 1: r(i)=AA*[exp(BB*(i-1))-1], size=1500 , AA= 0.14034E-03 BB= 0.88415E-02
 Shapefunction is SIN type: shapef(r)=[sin(pi*r/rshp)/(pi*r/rshp)]**2
 Radius for shape functions =  2.30830346
 mmax= 1500
 Radial grid used for partial waves is grid 1
 Radial grid used for projectors is grid 1
 Radial grid used for (t)core density is grid 1
 Radial grid used for Vloc is grid 1
 Radial grid used for pseudo valence density is grid 1
 Mesh size for Vloc has been set to 1343 to avoid numerical noise.
 Compensation charge density is not taken into account in XC energy/potential
 pspatm: atomic psp has been read  and splines computed
 
- pspini: atom type   2  psp file is /home/ucl/modl/jbouq/psps_paw_pbe/Sr.GGA_PBE-JTH.xml
- pspatm: opening atomic psp file    /home/ucl/modl/jbouq/psps_paw_pbe/Sr.GGA_PBE-JTH.xml
- pspatm : Reading pseudopotential header in XML form from /home/ucl/modl/jbouq/psps_paw_pbe/Sr.GGA_PBE-JTH.xml
 Pseudopotential format is: paw10
 basis_size (lnmax)=  6 (lmn_size= 18), orbitals=   0   0   1   1   2   2
 Spheres core radius: rc_sph= 2.20669967
 1 radial meshes are used:
  - mesh 1: r(i)=AA*[exp(BB*(i-1))-1], size=1500 , AA= 0.22443E-03 BB= 0.85283E-02
 Shapefunction is SIN type: shapef(r)=[sin(pi*r/rshp)/(pi*r/rshp)]**2
 Radius for shape functions =  1.81361893
 mmax= 1500
 Radial grid used for partial waves is grid 1
 Radial grid used for projectors is grid 1
 Radial grid used for (t)core density is grid 1
 Radial grid used for Vloc is grid 1
 Radial grid used for pseudo valence density is grid 1
 Mesh size for Vloc has been set to 1337 to avoid numerical noise.
 Compensation charge density is not taken into account in XC energy/potential
 pspatm: atomic psp has been read  and splines computed
 
- pspini: atom type   3  psp file is /home/ucl/modl/jbouq/psps_paw_pbe/Li.GGA_PBE-JTH.xml
- pspatm: opening atomic psp file    /home/ucl/modl/jbouq/psps_paw_pbe/Li.GGA_PBE-JTH.xml
- pspatm : Reading pseudopotential header in XML form from /home/ucl/modl/jbouq/psps_paw_pbe/Li.GGA_PBE-JTH.xml
 Pseudopotential format is: paw10
 basis_size (lnmax)=  5 (lmn_size=  9), orbitals=   0   0   0   1   1
 Spheres core radius: rc_sph= 1.60264751
 1 radial meshes are used:
  - mesh 1: r(i)=AA*[exp(BB*(i-1))-1], size=2001 , AA= 0.17851E-02 BB= 0.53552E-02
 Shapefunction is BESSEL type: shapef(r,l)=aa(1,l)*jl(q(1,l)*r)+aa(2,l)*jl(q(2,l)*r)
 Radius for shape functions =  1.30023672
 mmax= 2001
 Radial grid used for partial waves is grid 1
 Radial grid used for projectors is grid 1
 Radial grid used for (t)core density is grid 1
 Radial grid used for Vloc is grid 1
 Radial grid used for pseudo valence density is grid 1
 Mesh size for Vloc has been set to 1742 to avoid numerical noise.
 Compensation charge density is not taken into account in XC energy/potential
 pspatm: atomic psp has been read  and splines computed
 
- pspini: atom type   4  psp file is /home/ucl/modl/jbouq/psps_paw_pbe/Al.GGA_PBE-JTH.xml
- pspatm: opening atomic psp file    /home/ucl/modl/jbouq/psps_paw_pbe/Al.GGA_PBE-JTH.xml
- pspatm : Reading pseudopotential header in XML form from /home/ucl/modl/jbouq/psps_paw_pbe/Al.GGA_PBE-JTH.xml
 Pseudopotential format is: paw10
 basis_size (lnmax)=  4 (lmn_size=  8), orbitals=   0   0   1   1
 Spheres core radius: rc_sph= 1.90363307
 1 radial meshes are used:
  - mesh 1: r(i)=AA*[exp(BB*(i-1))-1], size=2001 , AA= 0.46377E-03 BB= 0.60291E-02
 Shapefunction is SIN type: shapef(r)=[sin(pi*r/rshp)/(pi*r/rshp)]**2
 Radius for shape functions =  1.60786206
 mmax= 2001
 Radial grid used for partial waves is grid 1
 Radial grid used for projectors is grid 1
 Radial grid used for (t)core density is grid 1
 Radial grid used for Vloc is grid 1
 Radial grid used for pseudo valence density is grid 1
 Mesh size for Vloc has been set to 1771 to avoid numerical noise.
 Compensation charge density is not taken into account in XC energy/potential
 pspatm: atomic psp has been read  and splines computed
 
- pspini: atom type   5  psp file is /home/ucl/modl/jbouq/psps_paw_pbe/N.GGA_PBE-JTH.xml
- pspatm: opening atomic psp file    /home/ucl/modl/jbouq/psps_paw_pbe/N.GGA_PBE-JTH.xml
- pspatm : Reading pseudopotential header in XML form from /home/ucl/modl/jbouq/psps_paw_pbe/N.GGA_PBE-JTH.xml
 Pseudopotential format is: paw10
 basis_size (lnmax)=  4 (lmn_size=  8), orbitals=   0   0   1   1
 Spheres core radius: rc_sph= 1.20000000
 1 radial meshes are used:
  - mesh 1: r(i)=AA*[exp(BB*(i-1))-1], size= 787 , AA= 0.19344E-02 BB= 0.13541E-01
 Shapefunction is SIN type: shapef(r)=[sin(pi*r/rshp)/(pi*r/rshp)]**2
 Radius for shape functions =  1.00599851
 mmax=  787
 Radial grid used for partial waves is grid 1
 Radial grid used for projectors is grid 1
 Radial grid used for (t)core density is grid 1
 Radial grid used for Vloc is grid 1
 Radial grid used for pseudo valence density is grid 1
 Mesh size for Vloc has been set to  683 to avoid numerical noise.
 Compensation charge density is not taken into account in XC energy/potential
 pspatm: atomic psp has been read  and splines computed
 
- pspini: atom type   6  psp file is /home/ucl/modl/jbouq/psps_paw_pbe/O.GGA_PBE-JTH.xml
- pspatm: opening atomic psp file    /home/ucl/modl/jbouq/psps_paw_pbe/O.GGA_PBE-JTH.xml
- pspatm : Reading pseudopotential header in XML form from /home/ucl/modl/jbouq/psps_paw_pbe/O.GGA_PBE-JTH.xml
 Pseudopotential format is: paw10
 basis_size (lnmax)=  4 (lmn_size=  8), orbitals=   0   0   1   1
 Spheres core radius: rc_sph= 1.41465230
 1 radial meshes are used:
  - mesh 1: r(i)=AA*[exp(BB*(i-1))-1], size=2001 , AA= 0.72565E-03 BB= 0.58052E-02
 Shapefunction is SIN type: shapef(r)=[sin(pi*r/rshp)/(pi*r/rshp)]**2
 Radius for shape functions =  1.20231231
 mmax= 2001
 Radial grid used for partial waves is grid 1
 Radial grid used for projectors is grid 1
 Radial grid used for (t)core density is grid 1
 Radial grid used for Vloc is grid 1
 Radial grid used for pseudo valence density is grid 1
 Mesh size for Vloc has been set to 1762 to avoid numerical noise.
 Compensation charge density is not taken into account in XC energy/potential
 pspatm: atomic psp has been read  and splines computed
 
   1.43215553E+05                                ecore*ucvol(ha*bohr**3)
--------------------------------------------------------------------------------
 
_setup2: Arith. and geom. avg. npw (full set) are    1622.500    1622.499
 
 
 ******************************************
 DFT+U Method used: FLL
 ******************************************
 
================================================================================

--- !BeginCycle
iteration_state: {dtset: 1, }
solver: {iscf: 17, nstep: 100, nline: 4, wfoptalg: 114, }
tolerances: {toldfe: 1.00E-08, }
...
 
     iter   Etot(hartree)      deltaE(h)  residm     nres2
 ETOT  1  -889.56166283600    -8.896E+02 8.284E-04 1.313E+01
 ETOT  2  -889.72129355851    -1.596E-01 2.758E-04 1.579E+02
 ETOT  3  -889.62334844330     9.795E-02 3.702E-04 7.918E+00
 ETOT  4  -889.61719930372     6.149E-03 3.967E-04 4.833E+00
 ETOT  5  -889.59789030781     1.931E-02 6.206E-04 2.511E+00
 ETOT  6  -889.58742984361     1.046E-02 3.786E-04 1.180E+00
 ETOT  7  -889.58333210533     4.098E-03 1.034E-04 2.351E-01
 ETOT  8  -889.58192576646     1.406E-03 4.523E-05 8.132E-03
 ETOT  9  -889.58224674001    -3.210E-04 1.690E-05 1.943E-03
 ETOT 10  -889.58231496322    -6.822E-05 1.676E-05 4.140E-03
 ETOT 11  -889.58230389269     1.107E-05 9.372E-06 3.847E-04
 ETOT 12  -889.58231943076    -1.554E-05 6.002E-06 1.434E-04
 ETOT 13  -889.58232483332    -5.403E-06 1.213E-05 5.124E-05
 ETOT 14  -889.58232622191    -1.389E-06 8.706E-06 1.893E-05
 ETOT 15  -889.58232700974    -7.878E-07 1.506E-05 5.256E-06
 ETOT 16  -889.58232717859    -1.689E-07 7.683E-06 1.759E-06
 ETOT 17  -889.58232723126    -5.267E-08 9.157E-06 1.007E-06
 ETOT 18  -889.58232725509    -2.383E-08 4.799E-06 3.943E-07
 ETOT 19  -889.58232727325    -1.816E-08 4.573E-06 1.661E-07
 ETOT 20  -889.58232727760    -4.350E-09 3.102E-06 5.803E-08
 ETOT 21  -889.58232728016    -2.555E-09 2.303E-06 3.239E-08
 
 At SCF step   21, etot is converged : 
  for the second time, diff in etot=  2.555E-09 < toldfe=  1.000E-08
 
 Cartesian components of stress tensor (hartree/bohr^3)
  sigma(1 1)=  4.37347218E-04  sigma(3 2)=  0.00000000E+00
  sigma(2 2)=  4.36093452E-04  sigma(3 1)=  0.00000000E+00
  sigma(3 3)=  4.57832206E-04  sigma(2 1)=  8.78019172E-06
 

--- !ResultsGS
iteration_state: {dtset: 1, }
comment   : Summary of ground state results
lattice_vectors:
- [ 15.1390449,   0.0381571,   0.0000000, ]
- [  0.0381571,  15.1389269,   0.0000000, ]
- [  0.0000000,   0.0000000,  24.2860350, ]
lattice_lengths: [  15.13909,   15.13897,   24.28603, ]
lattice_angles: [ 90.000,  90.000,  89.711, ] # degrees, (23, 13, 12)
lattice_volume:   5.5660541E+03
convergence: {deltae: -2.555E-09, res2:  3.239E-08, residm:  2.303E-06, diffor: null, }
etotal    :  -8.89582327E+02
entropy   :   0.00000000E+00
fermie    :   2.34720264E-01
cartesian_stress_tensor: # hartree/bohr^3
- [  4.37347218E-04,   8.78019172E-06,   0.00000000E+00, ]
- [  8.78019172E-06,   4.36093452E-04,   0.00000000E+00, ]
- [  0.00000000E+00,   0.00000000E+00,   4.57832206E-04, ]
pressure_GPa:  -1.3056E+01
xred      :
- [  5.0000E-01,  -2.1684E-19,   1.2500E-01, Eu]
- [  5.0000E-01,  -2.1684E-19,   3.7330E-01, Sr]
- [  5.0000E-01,  -2.1684E-19,   6.2500E-01, Sr]
- [  5.0000E-01,  -2.1684E-19,   8.7670E-01, Sr]
- [ -5.5511E-17,   5.0000E-01,  -4.9254E-05, Sr]
- [ -5.5511E-17,   5.0000E-01,   2.5005E-01, Sr]
- [ -5.5511E-17,   5.0000E-01,   5.0019E-01, Sr]
- [ -5.5511E-17,   5.0000E-01,   7.4981E-01, Sr]
- [  1.2508E-01,   8.2304E-01,   1.2500E-01, Li]
- [  1.2605E-01,   8.2334E-01,   3.7461E-01, Li]
- [  1.2541E-01,   8.2237E-01,   6.2500E-01, Li]
- [  1.2605E-01,   8.2334E-01,   8.7539E-01, Li]
- [  8.7492E-01,   1.7696E-01,   1.2500E-01, Li]
- [  8.7395E-01,   1.7666E-01,   3.7461E-01, Li]
- [  8.7459E-01,   1.7763E-01,   6.2500E-01, Li]
- [  8.7395E-01,   1.7666E-01,   8.7539E-01, Li]
- [  1.7686E-01,   1.2658E-01,   4.1587E-04, Li]
- [  1.7686E-01,   1.2658E-01,   2.4958E-01, Li]
- [  1.7732E-01,   1.2603E-01,   5.0006E-01, Li]
- [  1.7732E-01,   1.2603E-01,   7.4994E-01, Li]
- [  8.2314E-01,   8.7342E-01,   4.1587E-04, Li]
- [  8.2314E-01,   8.7342E-01,   2.4958E-01, Li]
- [  8.2268E-01,   8.7397E-01,   5.0006E-01, Li]
- [  8.2268E-01,   8.7397E-01,   7.4994E-01, Li]
- [  3.5352E-01,   6.8459E-01,   1.1320E-03, Al]
- [  3.5352E-01,   6.8459E-01,   2.4887E-01, Al]
- [  3.5312E-01,   6.8455E-01,   4.9969E-01, Al]
- [  3.5312E-01,   6.8455E-01,   7.5031E-01, Al]
- [  6.4648E-01,   3.1541E-01,   1.1320E-03, Al]
- [  6.4648E-01,   3.1541E-01,   2.4887E-01, Al]
- [  6.4688E-01,   3.1545E-01,   4.9969E-01, Al]
- [  6.4688E-01,   3.1545E-01,   7.5031E-01, Al]
- [  3.1535E-01,   3.5149E-01,   1.2500E-01, Al]
- [  3.1662E-01,   3.5200E-01,   3.7470E-01, Al]
- [  3.1631E-01,   3.5372E-01,   6.2500E-01, Al]
- [  3.1662E-01,   3.5200E-01,   8.7530E-01, Al]
- [  6.8465E-01,   6.4851E-01,   1.2500E-01, Al]
- [  6.8338E-01,   6.4800E-01,   3.7470E-01, Al]
- [  6.8369E-01,   6.4628E-01,   6.2500E-01, Al]
- [  6.8338E-01,   6.4800E-01,   8.7530E-01, Al]
- [  5.8459E-01,   7.3470E-01,   1.2556E-03,  N]
- [  5.8459E-01,   7.3470E-01,   2.4874E-01,  N]
- [  5.8478E-01,   7.2958E-01,   4.9999E-01,  N]
- [  5.8478E-01,   7.2958E-01,   7.5001E-01,  N]
- [  4.1541E-01,   2.6530E-01,   1.2556E-03,  N]
- [  4.1541E-01,   2.6530E-01,   2.4874E-01,  N]
- [  4.1522E-01,   2.7042E-01,   4.9999E-01,  N]
- [  4.1522E-01,   2.7042E-01,   7.5001E-01,  N]
- [  2.7061E-01,   5.8311E-01,   1.2500E-01,  N]
- [  2.7199E-01,   5.8464E-01,   3.7370E-01,  N]
- [  2.7006E-01,   5.8551E-01,   6.2500E-01,  N]
- [  2.7199E-01,   5.8464E-01,   8.7630E-01,  N]
- [  7.2939E-01,   4.1689E-01,   1.2500E-01,  N]
- [  7.2801E-01,   4.1536E-01,   3.7370E-01,  N]
- [  7.2994E-01,   4.1449E-01,   6.2500E-01,  N]
- [  7.2801E-01,   4.1536E-01,   8.7630E-01,  N]
- [  2.5686E-01,   8.9386E-01,   3.2970E-03,  O]
- [  2.5686E-01,   8.9386E-01,   2.4670E-01,  O]
- [  2.5313E-01,   8.9181E-01,   4.9934E-01,  O]
- [  2.5313E-01,   8.9181E-01,   7.5066E-01,  O]
- [  7.4314E-01,   1.0614E-01,   3.2970E-03,  O]
- [  7.4314E-01,   1.0614E-01,   2.4670E-01,  O]
- [  7.4687E-01,   1.0819E-01,   4.9934E-01,  O]
- [  7.4687E-01,   1.0819E-01,   7.5066E-01,  O]
- [  1.0634E-01,   2.5670E-01,   1.2500E-01,  O]
- [  1.0756E-01,   2.5674E-01,   3.7422E-01,  O]
- [  1.0776E-01,   2.5749E-01,   6.2500E-01,  O]
- [  1.0756E-01,   2.5674E-01,   8.7578E-01,  O]
- [  8.9366E-01,   7.4330E-01,   1.2500E-01,  O]
- [  8.9244E-01,   7.4326E-01,   3.7422E-01,  O]
- [  8.9224E-01,   7.4251E-01,   6.2500E-01,  O]
- [  8.9244E-01,   7.4326E-01,   8.7578E-01,  O]
cartesian_forces: # hartree/bohr
- [  7.52918175E-22,   0.00000000E+00,   2.40933816E-20, ]
- [  7.52918175E-22,   0.00000000E+00,  -2.03519760E-04, ]
- [  7.52918175E-22,   0.00000000E+00,   2.40933816E-20, ]
- [  7.52918175E-22,   0.00000000E+00,   2.03519760E-04, ]
- [  7.52918175E-22,   0.00000000E+00,   8.25531546E-04, ]
- [  7.52918175E-22,   0.00000000E+00,  -8.25531546E-04, ]
- [  7.52918175E-22,   0.00000000E+00,  -1.27158922E-03, ]
- [  7.52918175E-22,   0.00000000E+00,   1.27158922E-03, ]
- [  3.46597018E-04,   4.93670572E-04,   2.40933816E-20, ]
- [ -1.68680733E-04,  -1.91467900E-04,  -1.32688753E-03, ]
- [ -2.23110576E-04,  -1.87652612E-04,   2.40933816E-20, ]
- [ -1.68680733E-04,  -1.91467900E-04,   1.32688753E-03, ]
- [ -3.46597018E-04,  -4.93670572E-04,   2.40933816E-20, ]
- [  1.68680733E-04,   1.91467900E-04,  -1.32688753E-03, ]
- [  2.23110576E-04,   1.87652612E-04,   2.40933816E-20, ]
- [  1.68680733E-04,   1.91467900E-04,   1.32688753E-03, ]
- [  2.95404593E-04,  -6.69148206E-04,   1.00729743E-03, ]
- [  2.95404593E-04,  -6.69148206E-04,  -1.00729743E-03, ]
- [ -5.68428076E-04,   3.13667014E-04,  -3.86136527E-04, ]
- [ -5.68428076E-04,   3.13667014E-04,   3.86136527E-04, ]
- [ -2.95404593E-04,   6.69148206E-04,   1.00729743E-03, ]
- [ -2.95404593E-04,   6.69148206E-04,  -1.00729743E-03, ]
- [  5.68428076E-04,  -3.13667014E-04,  -3.86136527E-04, ]
- [  5.68428076E-04,  -3.13667014E-04,   3.86136527E-04, ]
- [  4.23139336E-04,   1.30761015E-03,   9.74434980E-04, ]
- [  4.23139336E-04,   1.30761015E-03,  -9.74434980E-04, ]
- [ -1.13834777E-03,  -1.76999079E-03,  -1.42752831E-03, ]
- [ -1.13834777E-03,  -1.76999079E-03,   1.42752831E-03, ]
- [ -4.23139336E-04,  -1.30761015E-03,   9.74434980E-04, ]
- [ -4.23139336E-04,  -1.30761015E-03,  -9.74434980E-04, ]
- [  1.13834777E-03,   1.76999079E-03,  -1.42752831E-03, ]
- [  1.13834777E-03,   1.76999079E-03,   1.42752831E-03, ]
- [ -8.72534917E-05,  -5.92113925E-04,   2.40933816E-20, ]
- [  6.39108577E-06,   1.73592489E-03,  -4.12567543E-03, ]
- [ -6.53981436E-04,   4.34284288E-04,   2.40933816E-20, ]
- [  6.39108577E-06,   1.73592489E-03,   4.12567543E-03, ]
- [  8.72534917E-05,   5.92113925E-04,   2.40933816E-20, ]
- [ -6.39108577E-06,  -1.73592489E-03,  -4.12567543E-03, ]
- [  6.53981436E-04,  -4.34284288E-04,   2.40933816E-20, ]
- [ -6.39108577E-06,  -1.73592489E-03,   4.12567543E-03, ]
- [  1.56781119E-03,  -5.51559978E-03,  -6.89951460E-03, ]
- [  1.56781119E-03,  -5.51559978E-03,   6.89951460E-03, ]
- [ -6.39809726E-04,   1.76403733E-03,   6.76297111E-04, ]
- [ -6.39809726E-04,   1.76403733E-03,  -6.76297111E-04, ]
- [ -1.56781119E-03,   5.51559978E-03,  -6.89951460E-03, ]
- [ -1.56781119E-03,   5.51559978E-03,   6.89951460E-03, ]
- [  6.39809726E-04,  -1.76403733E-03,   6.76297111E-04, ]
- [  6.39809726E-04,  -1.76403733E-03,  -6.76297111E-04, ]
- [  4.07199513E-04,   3.68658512E-04,   2.40933816E-20, ]
- [ -6.84147863E-05,   5.08060460E-04,   3.45625999E-03, ]
- [  8.74672713E-04,   2.10723821E-04,   2.40933816E-20, ]
- [ -6.84147863E-05,   5.08060460E-04,  -3.45625999E-03, ]
- [ -4.07199513E-04,  -3.68658512E-04,   2.40933816E-20, ]
- [  6.84147863E-05,  -5.08060460E-04,   3.45625999E-03, ]
- [ -8.74672713E-04,  -2.10723821E-04,   2.40933816E-20, ]
- [  6.84147863E-05,  -5.08060460E-04,  -3.45625999E-03, ]
- [ -3.18688879E-03,  -2.16364346E-03,  -7.21674586E-03, ]
- [ -3.18688879E-03,  -2.16364346E-03,   7.21674586E-03, ]
- [  1.95317731E-03,   1.57352393E-03,   6.18011557E-04, ]
- [  1.95317731E-03,   1.57352393E-03,  -6.18011557E-04, ]
- [  3.18688879E-03,   2.16364346E-03,  -7.21674586E-03, ]
- [  3.18688879E-03,   2.16364346E-03,   7.21674586E-03, ]
- [ -1.95317731E-03,  -1.57352393E-03,   6.18011557E-04, ]
- [ -1.95317731E-03,  -1.57352393E-03,  -6.18011557E-04, ]
- [ -3.28389513E-06,   6.33378989E-04,   2.40933816E-20, ]
- [  1.37179489E-04,  -1.54410421E-04,   1.79848238E-03, ]
- [  1.46584876E-04,  -3.98954239E-04,   2.40933816E-20, ]
- [  1.37179489E-04,  -1.54410421E-04,  -1.79848238E-03, ]
- [  3.28389513E-06,  -6.33378989E-04,   2.40933816E-20, ]
- [ -1.37179489E-04,   1.54410421E-04,   1.79848238E-03, ]
- [ -1.46584876E-04,   3.98954239E-04,   2.40933816E-20, ]
- [ -1.37179489E-04,   1.54410421E-04,  -1.79848238E-03, ]
force_length_stats: {min:   2.41051431E-20, max:   8.97124153E-03, mean:   2.36845263E-03, }
...

 Integrated electronic and magnetization densities in atomic spheres:
 ---------------------------------------------------------------------
 Radius=ratsph(iatom), smearing ratsm=  0.0000. Diff(up-dn)=approximate z local magnetic moment.
 Atom    Radius    up_density   dn_density  Total(up+dn)  Diff(up-dn)
    1   2.52170    10.801486     3.928220     14.729706     6.873266
    2   2.20670     3.669095     3.666511      7.335606     0.002585
    3   2.20670     3.665162     3.664919      7.330081     0.000242
    4   2.20670     3.669095     3.666511      7.335606     0.002585
    5   2.20670     3.667641     3.667450      7.335091     0.000190
    6   2.20670     3.667641     3.667450      7.335091     0.000190
    7   2.20670     3.665413     3.665361      7.330774     0.000052
    8   2.20670     3.665413     3.665361      7.330774     0.000052
    9   1.60265     1.056312     1.056279      2.112591     0.000033
   10   1.60265     1.053298     1.053379      2.106676    -0.000081
   11   1.60265     1.054481     1.054479      2.108959     0.000002
   12   1.60265     1.053298     1.053379      2.106676    -0.000081
   13   1.60265     1.056312     1.056279      2.112591     0.000033
   14   1.60265     1.053298     1.053379      2.106676    -0.000081
   15   1.60265     1.054481     1.054479      2.108959     0.000002
   16   1.60265     1.053298     1.053379      2.106676    -0.000081
   17   1.60265     1.055568     1.055419      2.110987     0.000150
   18   1.60265     1.055568     1.055419      2.110987     0.000150
   19   1.60265     1.054150     1.054148      2.108297     0.000002
   20   1.60265     1.054150     1.054148      2.108297     0.000002
   21   1.60265     1.055568     1.055419      2.110987     0.000150
   22   1.60265     1.055568     1.055419      2.110987     0.000150
   23   1.60265     1.054150     1.054148      2.108297     0.000002
   24   1.60265     1.054150     1.054148      2.108297     0.000002
   25   1.90363     0.450999     0.450694      0.901692     0.000305
   26   1.90363     0.450999     0.450694      0.901692     0.000305
   27   1.90363     0.447632     0.447634      0.895265    -0.000002
   28   1.90363     0.447632     0.447634      0.895265    -0.000002
   29   1.90363     0.450999     0.450694      0.901692     0.000305
   30   1.90363     0.450999     0.450694      0.901692     0.000305
   31   1.90363     0.447632     0.447634      0.895265    -0.000002
   32   1.90363     0.447632     0.447634      0.895265    -0.000002
   33   1.90363     0.451758     0.451354      0.903112     0.000404
   34   1.90363     0.445457     0.445758      0.891215    -0.000301
   35   1.90363     0.450915     0.450890      0.901805     0.000025
   36   1.90363     0.445457     0.445758      0.891215    -0.000301
   37   1.90363     0.451758     0.451354      0.903112     0.000404
   38   1.90363     0.445457     0.445758      0.891215    -0.000301
   39   1.90363     0.450915     0.450890      0.901805     0.000025
   40   1.90363     0.445457     0.445758      0.891215    -0.000301
   41   1.20000     1.272846     1.278338      2.551184    -0.005491
   42   1.20000     1.272846     1.278338      2.551184    -0.005491
   43   1.20000     1.275157     1.275161      2.550318    -0.000005
   44   1.20000     1.275157     1.275161      2.550318    -0.000005
   45   1.20000     1.272846     1.278338      2.551184    -0.005491
   46   1.20000     1.272846     1.278338      2.551184    -0.005491
   47   1.20000     1.275157     1.275161      2.550318    -0.000005
   48   1.20000     1.275157     1.275161      2.550318    -0.000005
   49   1.20000     1.270785     1.270521      2.541306     0.000265
   50   1.20000     1.275461     1.275774      2.551235    -0.000314
   51   1.20000     1.275782     1.275788      2.551570    -0.000006
   52   1.20000     1.275461     1.275774      2.551235    -0.000314
   53   1.20000     1.270785     1.270521      2.541306     0.000265
   54   1.20000     1.275461     1.275774      2.551235    -0.000314
   55   1.20000     1.275782     1.275788      2.551570    -0.000006
   56   1.20000     1.275461     1.275774      2.551235    -0.000314
   57   1.41465     2.278274     2.285502      4.563776    -0.007229
   58   1.41465     2.278274     2.285502      4.563776    -0.007229
   59   1.41465     2.285715     2.285740      4.571455    -0.000025
   60   1.41465     2.285715     2.285740      4.571455    -0.000025
   61   1.41465     2.278274     2.285502      4.563776    -0.007229
   62   1.41465     2.278274     2.285502      4.563776    -0.007229
   63   1.41465     2.285715     2.285740      4.571455    -0.000025
   64   1.41465     2.285715     2.285740      4.571455    -0.000025
   65   1.41465     2.299385     2.299240      4.598625     0.000145
   66   1.41465     2.289729     2.289761      4.579490    -0.000032
   67   1.41465     2.286388     2.286392      4.572780    -0.000004
   68   1.41465     2.289729     2.289761      4.579490    -0.000032
   69   1.41465     2.299385     2.299240      4.598625     0.000145
   70   1.41465     2.289729     2.289761      4.579490    -0.000032
   71   1.41465     2.286388     2.286392      4.572780    -0.000004
   72   1.41465     2.289729     2.289761      4.579490    -0.000032
 ---------------------------------------------------------------------
  Sum:            117.499691   110.670893    228.170584     6.828798
 Total magnetization (from the atomic spheres):             6.828798
 Total magnetization (exact up - dn):                       6.999983
 
 PAW TEST:
 ==== Compensation charge inside spheres ============
 The following values must be close to each other ...
 Compensation charge over spherical meshes =     28.783356834972992
 Compensation charge over fine fft grid    =     28.784057388060560
 
 ==== Results concerning PAW augmentation regions ====
 
 Total pseudopotential strength Dij (hartree):
 Atom #  1 - Spin component 1
  -0.74962  -0.07650   0.00000   0.00000   0.00000   0.00000   0.00000   0.00000  -0.00003   0.00000   0.00006   0.00000 ...
  -0.07650  -0.09204   0.00000   0.00000   0.00000   0.00000   0.00000   0.00000  -0.00000   0.00000   0.00001   0.00000 ...
   0.00000   0.00000  -0.71985   0.00000   0.00006   0.14756   0.00000  -0.00023   0.00000   0.00000   0.00000   0.00000 ...
   0.00000   0.00000   0.00000  -0.71999   0.00000   0.00000   0.14812   0.00000   0.00000   0.00000   0.00000   0.00000 ...
   0.00000   0.00000   0.00006   0.00000  -0.71967  -0.00023   0.00000   0.14701   0.00000   0.00000   0.00000   0.00000 ...
   0.00000   0.00000   0.14756   0.00000  -0.00023   0.88722   0.00000   0.00008   0.00000   0.00000   0.00000   0.00000 ...
   0.00000   0.00000   0.00000   0.14812   0.00000   0.00000   0.88706   0.00000   0.00000   0.00000   0.00000   0.00000 ...
   0.00000   0.00000  -0.00023   0.00000   0.14701   0.00008   0.00000   0.88741   0.00000   0.00000   0.00000   0.00000 ...
  -0.00003  -0.00000   0.00000   0.00000   0.00000   0.00000   0.00000   0.00000  -0.18721   0.00000  -0.00000   0.00000 ...
   0.00000   0.00000   0.00000   0.00000   0.00000   0.00000   0.00000   0.00000   0.00000  -0.18721   0.00000  -0.00000 ...
   0.00006   0.00001   0.00000   0.00000   0.00000   0.00000   0.00000   0.00000  -0.00000   0.00000  -0.18721   0.00000 ...
   0.00000   0.00000   0.00000   0.00000   0.00000   0.00000   0.00000   0.00000   0.00000  -0.00000   0.00000  -0.18721 ...
   ...  only 12  components have been written...
 Atom #  1 - Spin component 2
  -0.67042  -0.06733   0.00000   0.00000   0.00000   0.00000   0.00000   0.00000   0.00001   0.00000  -0.00000   0.00000 ...
  -0.06733  -0.09112   0.00000   0.00000   0.00000   0.00000   0.00000   0.00000   0.00001   0.00000  -0.00001   0.00000 ...
   0.00000   0.00000  -0.65408   0.00000   0.00014   0.07712   0.00000  -0.00030   0.00000   0.00000   0.00000   0.00000 ...
   0.00000   0.00000   0.00000  -0.65432   0.00000   0.00000   0.07777   0.00000   0.00000   0.00000   0.00000   0.00000 ...
   0.00000   0.00000   0.00014   0.00000  -0.65372  -0.00030   0.00000   0.07643   0.00000   0.00000   0.00000   0.00000 ...
   0.00000   0.00000   0.07712   0.00000  -0.00030   0.95826   0.00000   0.00016   0.00000   0.00000   0.00000   0.00000 ...
   0.00000   0.00000   0.00000   0.07777   0.00000   0.00000   0.95801   0.00000   0.00000   0.00000   0.00000   0.00000 ...
   0.00000   0.00000  -0.00030   0.00000   0.07643   0.00016   0.00000   0.95864   0.00000   0.00000   0.00000   0.00000 ...
   0.00001   0.00001   0.00000   0.00000   0.00000   0.00000   0.00000   0.00000  -0.17260   0.00000  -0.00002   0.00000 ...
   0.00000   0.00000   0.00000   0.00000   0.00000   0.00000   0.00000   0.00000   0.00000  -0.17256   0.00000   0.00001 ...
  -0.00000  -0.00001   0.00000   0.00000   0.00000   0.00000   0.00000   0.00000  -0.00002   0.00000  -0.17271   0.00000 ...
   0.00000   0.00000   0.00000   0.00000   0.00000   0.00000   0.00000   0.00000   0.00000   0.00001   0.00000  -0.17253 ...
   ...  only 12  components have been written...
 Atom # 72 - Spin component 1
   0.61090  -1.74597   0.00028   0.00001   0.00065  -0.00199  -0.00005  -0.00464
  -1.74597   5.05151  -0.00076  -0.00002  -0.00177   0.00539   0.00017   0.01264
   0.00028  -0.00076  -0.29736  -0.00000  -0.00029   0.90484   0.00002   0.00151
   0.00001  -0.00002  -0.00000  -0.29708  -0.00001   0.00002   0.90334   0.00003
   0.00065  -0.00177  -0.00029  -0.00001  -0.29781   0.00151   0.00003   0.90721
  -0.00199   0.00539   0.90484   0.00002   0.00151   0.04676  -0.00012  -0.00766
  -0.00005   0.00017   0.00002   0.90334   0.00003  -0.00012   0.05467  -0.00015
  -0.00464   0.01264   0.00151   0.00003   0.90721  -0.00766  -0.00015   0.03495
 Atom # 72 - Spin component 2
   0.61090  -1.74596   0.00028   0.00001   0.00065  -0.00199  -0.00006  -0.00464
  -1.74596   5.05148  -0.00076  -0.00002  -0.00177   0.00540   0.00017   0.01263
   0.00028  -0.00076  -0.29736  -0.00000  -0.00029   0.90484   0.00002   0.00151
   0.00001  -0.00002  -0.00000  -0.29709  -0.00001   0.00002   0.90335   0.00003
   0.00065  -0.00177  -0.00029  -0.00001  -0.29781   0.00151   0.00003   0.90722
  -0.00199   0.00540   0.90484   0.00002   0.00151   0.04675  -0.00012  -0.00767
  -0.00006   0.00017   0.00002   0.90335   0.00003  -0.00012   0.05464  -0.00015
  -0.00464   0.01263   0.00151   0.00003   0.90722  -0.00767  -0.00015   0.03492
 
 
 Augmentation waves occupancies Rhoij:
 Atom #  1 - Spin component 1
   0.99442  -0.00170   0.00000   0.00000   0.00000   0.00000   0.00000   0.00000  -0.00052   0.00000   0.00017   0.00000 ...
  -0.00170   0.12756   0.00000   0.00000   0.00000   0.00000   0.00000   0.00000  -0.00099   0.00000   0.00335   0.00000 ...
   0.00000   0.00000   0.99887   0.00000   0.00068   0.01456   0.00000  -0.00045   0.00000   0.00000   0.00000   0.00000 ...
   0.00000   0.00000   0.00000   0.99756   0.00000   0.00000   0.01566   0.00000   0.00000   0.00000   0.00000   0.00000 ...
   0.00000   0.00000   0.00068   0.00000   0.99891  -0.00046   0.00000   0.01466   0.00000   0.00000   0.00000   0.00000 ...
   0.00000   0.00000   0.01456   0.00000  -0.00046   0.00486   0.00000   0.00006   0.00000   0.00000   0.00000   0.00000 ...
   0.00000   0.00000   0.00000   0.01566   0.00000   0.00000   0.00473   0.00000   0.00000   0.00000   0.00000   0.00000 ...
   0.00000   0.00000  -0.00045   0.00000   0.01466   0.00006   0.00000   0.00424   0.00000   0.00000   0.00000   0.00000 ...
  -0.00052  -0.00099   0.00000   0.00000   0.00000   0.00000   0.00000   0.00000   0.03292   0.00000  -0.00033   0.00000 ...
   0.00000   0.00000   0.00000   0.00000   0.00000   0.00000   0.00000   0.00000   0.00000   0.05674   0.00000  -0.00125 ...
   0.00017   0.00335   0.00000   0.00000   0.00000   0.00000   0.00000   0.00000  -0.00033   0.00000   0.01518   0.00000 ...
   0.00000   0.00000   0.00000   0.00000   0.00000   0.00000   0.00000   0.00000   0.00000  -0.00125   0.00000   0.04971 ...
   ...  only 12  components have been written...
 Atom #  1 - Spin component 2
   0.92964   0.13374   0.00000   0.00000   0.00000   0.00000   0.00000   0.00000  -0.00104   0.00000   0.00094   0.00000 ...
   0.13374   0.12463   0.00000   0.00000   0.00000   0.00000   0.00000   0.00000  -0.00047   0.00000   0.00238   0.00000 ...
   0.00000   0.00000   0.98576   0.00000   0.00083   0.03740   0.00000  -0.00043   0.00000   0.00000   0.00000   0.00000 ...
   0.00000   0.00000   0.00000   0.98388   0.00000   0.00000   0.03856   0.00000   0.00000   0.00000   0.00000   0.00000 ...
   0.00000   0.00000   0.00083   0.00000   0.98574  -0.00043   0.00000   0.03755   0.00000   0.00000   0.00000   0.00000 ...
   0.00000   0.00000   0.03740   0.00000  -0.00043   0.00523   0.00000   0.00003   0.00000   0.00000   0.00000   0.00000 ...
   0.00000   0.00000   0.00000   0.03856   0.00000   0.00000   0.00512   0.00000   0.00000   0.00000   0.00000   0.00000 ...
   0.00000   0.00000  -0.00043   0.00000   0.03755   0.00003   0.00000   0.00471   0.00000   0.00000   0.00000   0.00000 ...
  -0.00104  -0.00047   0.00000   0.00000   0.00000   0.00000   0.00000   0.00000   0.02311   0.00000  -0.00016   0.00000 ...
   0.00000   0.00000   0.00000   0.00000   0.00000   0.00000   0.00000   0.00000   0.00000   0.04021   0.00000  -0.00053 ...
   0.00094   0.00238   0.00000   0.00000   0.00000   0.00000   0.00000   0.00000  -0.00016   0.00000   0.01034   0.00000 ...
   0.00000   0.00000   0.00000   0.00000   0.00000   0.00000   0.00000   0.00000   0.00000  -0.00053   0.00000   0.03529 ...
   ...  only 12  components have been written...
 Atom # 72 - Spin component 1
   0.98011   0.01464  -0.00066   0.00066  -0.00019  -0.00065   0.00002  -0.00147
   0.01464   0.00038  -0.00182  -0.00007  -0.00429  -0.00009  -0.00000  -0.00017
  -0.00066  -0.00182   0.90869  -0.00000   0.00470   0.02005   0.00001   0.00129
   0.00066  -0.00007  -0.00000   0.92469  -0.00018   0.00001   0.01971   0.00002
  -0.00019  -0.00429   0.00470  -0.00018   0.92727   0.00128   0.00001   0.02250
  -0.00065  -0.00009   0.02005   0.00001   0.00128   0.00047   0.00000   0.00006
   0.00002  -0.00000   0.00001   0.01971   0.00001   0.00000   0.00044   0.00000
  -0.00147  -0.00017   0.00129   0.00002   0.02250   0.00006   0.00000   0.00058
 Atom # 72 - Spin component 2
   0.98010   0.01465  -0.00067   0.00064  -0.00016  -0.00065   0.00002  -0.00147
   0.01465   0.00038  -0.00182  -0.00006  -0.00430  -0.00009  -0.00000  -0.00017
  -0.00067  -0.00182   0.90872  -0.00001   0.00471   0.02005   0.00002   0.00129
   0.00064  -0.00006  -0.00001   0.92473  -0.00020   0.00002   0.01971   0.00001
  -0.00016  -0.00430   0.00471  -0.00020   0.92732   0.00128   0.00001   0.02250
  -0.00065  -0.00009   0.02005   0.00002   0.00128   0.00047   0.00000   0.00006
   0.00002  -0.00000   0.00002   0.01971   0.00001   0.00000   0.00044   0.00000
  -0.00147  -0.00017   0.00129   0.00001   0.02250   0.00006   0.00000   0.00058
 
 "PAW+U" part of augmentation waves occupancies Rhoij:
 Atom #  1 - L=3 ONLY - Spin component 1
   1.21153   0.00000   0.00108   0.00000   0.00174   0.00000   0.00099   0.07450   0.00000   0.00042   0.00000   0.00154   0.00000   0.00093
   0.00000   1.20812   0.00000   0.00065   0.00000  -0.00722   0.00000   0.00000   0.07413   0.00000  -0.00032   0.00000  -0.00111   0.00000
   0.00108   0.00000   1.22047   0.00000  -0.00166   0.00000  -0.00148   0.00043   0.00000   0.07864   0.00000  -0.00081   0.00000  -0.00010
   0.00000   0.00065   0.00000   1.22352   0.00000   0.00330   0.00000   0.00000  -0.00029   0.00000   0.08119   0.00000   0.00153   0.00000
   0.00174   0.00000  -0.00166   0.00000   1.21393   0.00000   0.00333   0.00154   0.00000  -0.00081   0.00000   0.07499   0.00000   0.00193
   0.00000  -0.00722   0.00000   0.00330   0.00000   1.20577   0.00000   0.00000  -0.00111   0.00000   0.00148   0.00000   0.07326   0.00000
   0.00099   0.00000  -0.00148   0.00000   0.00333   0.00000   1.21523   0.00093   0.00000  -0.00011   0.00000   0.00194   0.00000   0.07638
   0.07450   0.00000   0.00043   0.00000   0.00154   0.00000   0.00093   0.00668   0.00000   0.00005   0.00000   0.00058   0.00000  -0.00000
   0.00000   0.07413   0.00000  -0.00029   0.00000  -0.00111   0.00000   0.00000   0.00895   0.00000  -0.00040   0.00000   0.00278   0.00000
   0.00042   0.00000   0.07864   0.00000  -0.00081   0.00000  -0.00011   0.00005   0.00000   0.00721   0.00000   0.00013   0.00000   0.00019
   0.00000  -0.00032   0.00000   0.08119   0.00000   0.00148   0.00000   0.00000  -0.00040   0.00000   0.00748   0.00000   0.00040   0.00000
   0.00154   0.00000  -0.00081   0.00000   0.07499   0.00000   0.00194   0.00058   0.00000   0.00013   0.00000   0.00681   0.00000   0.00028
   0.00000  -0.00111   0.00000   0.00153   0.00000   0.07326   0.00000   0.00000   0.00278   0.00000   0.00040   0.00000   0.00937   0.00000
   0.00093   0.00000  -0.00010   0.00000   0.00193   0.00000   0.07638  -0.00000   0.00000   0.00019   0.00000   0.00028   0.00000   0.00666
 Atom #  1 - L=3 ONLY - Spin component 2
   0.01127   0.00000   0.00001   0.00000   0.00235   0.00000  -0.00048   0.00500   0.00000   0.00001   0.00000   0.00104   0.00000  -0.00022
   0.00000   0.02288   0.00000  -0.00187   0.00000   0.01496   0.00000   0.00000   0.01012   0.00000  -0.00085   0.00000   0.00657   0.00000
   0.00001   0.00000   0.01165   0.00000   0.00104   0.00000   0.00134   0.00001   0.00000   0.00515   0.00000   0.00049   0.00000   0.00056
   0.00000  -0.00187   0.00000   0.01172   0.00000   0.00129   0.00000   0.00000  -0.00085   0.00000   0.00522   0.00000   0.00058   0.00000
   0.00235   0.00000   0.00104   0.00000   0.01160   0.00000   0.00034   0.00103   0.00000   0.00049   0.00000   0.00514   0.00000   0.00016
   0.00000   0.01496   0.00000   0.00129   0.00000   0.02533   0.00000   0.00000   0.00657   0.00000   0.00057   0.00000   0.01122   0.00000
  -0.00048   0.00000   0.00134   0.00000   0.00034   0.00000   0.00987  -0.00022   0.00000   0.00056   0.00000   0.00016   0.00000   0.00440
   0.00500   0.00000   0.00001   0.00000   0.00103   0.00000  -0.00022   0.00222   0.00000   0.00001   0.00000   0.00046   0.00000  -0.00010
   0.00000   0.01012   0.00000  -0.00085   0.00000   0.00657   0.00000   0.00000   0.00448   0.00000  -0.00039   0.00000   0.00289   0.00000
   0.00001   0.00000   0.00515   0.00000   0.00049   0.00000   0.00056   0.00001   0.00000   0.00228   0.00000   0.00023   0.00000   0.00023
   0.00000  -0.00085   0.00000   0.00522   0.00000   0.00057   0.00000   0.00000  -0.00039   0.00000   0.00233   0.00000   0.00026   0.00000
   0.00104   0.00000   0.00049   0.00000   0.00514   0.00000   0.00016   0.00046   0.00000   0.00023   0.00000   0.00228   0.00000   0.00008
   0.00000   0.00657   0.00000   0.00058   0.00000   0.01122   0.00000   0.00000   0.00289   0.00000   0.00026   0.00000   0.00498   0.00000
  -0.00022   0.00000   0.00056   0.00000   0.00016   0.00000   0.00440  -0.00010   0.00000   0.00023   0.00000   0.00008   0.00000   0.00196
 
 ---------- DFT+U DATA --------------------------------------------------- 
 
 ====== For Atom     1, occupations for correlated orbitals. lpawu =   3
 
 Atom   1. Occ. for lpawu and for spin  1 =   6.81617
 Atom   1. Occ. for lpawu and for spin  2 =   0.01760
 => On atom   1,  local Mag. for lpawu is       -6.798573
 
 == Occupation matrix for correlated orbitals:
 
 Occupation matrix for spin  1
     0.97368    0.00000   -0.00015    0.00000   -0.00146    0.00000   -0.00207
     0.00000    0.97884    0.00000    0.00034    0.00000    0.00542    0.00000
    -0.00015    0.00000    0.97069    0.00000    0.00142    0.00000   -0.00052
     0.00000    0.00034    0.00000    0.96624    0.00000   -0.00037    0.00000
    -0.00146    0.00000    0.00142    0.00000    0.97488    0.00000   -0.00213
     0.00000    0.00542    0.00000   -0.00037    0.00000    0.98069    0.00000
    -0.00207    0.00000   -0.00052    0.00000   -0.00213    0.00000    0.97114
 
 
 Occupation matrix for spin  2
     0.00190    0.00000   -0.00000    0.00000    0.00040    0.00000   -0.00008
     0.00000    0.00387    0.00000   -0.00031    0.00000    0.00255    0.00000
    -0.00000    0.00000    0.00197    0.00000    0.00017    0.00000    0.00024
     0.00000   -0.00031    0.00000    0.00197    0.00000    0.00022    0.00000
     0.00040    0.00000    0.00017    0.00000    0.00196    0.00000    0.00005
     0.00000    0.00255    0.00000    0.00022    0.00000    0.00428    0.00000
    -0.00008    0.00000    0.00024    0.00000    0.00005    0.00000    0.00165
 
 
 
================================================================================
 
 ----iterations are completed or convergence reached----
 
GS calculation converged with prtwf=-1 --> Skipping WFK file output
 reduced coordinates (array xred) for   72 atoms
       0.500000000000     -0.000000000000      0.125000000000
       0.500000000000     -0.000000000000      0.373304032200
[...]
                       2.5436342875E+00  2.8262977223E+00  1.1249076078E+01
                       5.4979893604E+00  5.2091213748E+00  1.6064520240E+00
                       5.4877951183E+00  5.2050692056E+00  4.8154441621E+00
                       5.4902316361E+00  5.1912932491E+00  8.0322601200E+00
                       5.4877951183E+00  5.2050692056E+00  1.1249076078E+01
                       4.6981272331E+00  5.8976196512E+00  1.6136936527E-02
                       4.6981272331E+00  5.8976196512E+00  3.1967671115E+00
                       4.6995714227E+00  5.8566265002E+00  6.4256633907E+00
                       4.6995714227E+00  5.8566265002E+00  9.6388568494E+00
                       3.3333021727E+00  2.1337472768E+00  1.6136936527E-02
                       3.3333021727E+00  2.1337472768E+00  3.1967671115E+00
                       3.3318579831E+00  2.1747404277E+00  6.4256633907E+00
                       3.3318579831E+00  2.1747404277E+00  9.6388568494E+00
                       2.1797261611E+00  4.6768281707E+00  1.6064520240E+00
                       2.1907893079E+00  4.6891666651E+00  4.8026781107E+00
                       2.1753161751E+00  4.6960857951E+00  8.0322601200E+00
                       2.1907893079E+00  4.6891666651E+00  1.1261842129E+01
                       5.8517032447E+00  3.3545387572E+00  1.6064520240E+00
                       5.8406400979E+00  3.3422002628E+00  4.8026781107E+00
                       5.8561132308E+00  3.3352811328E+00  8.0322601200E+00
                       5.8406400979E+00  3.3422002628E+00  1.1261842129E+01
                       2.0758004675E+00  7.1660608628E+00  4.2371781155E-02
                       2.0758004675E+00  7.1660608628E+00  3.1705322669E+00
                       2.0458665254E+00  7.1495959057E+00  6.4173682572E+00
                       2.0458665254E+00  7.1495959057E+00  9.6471519829E+00
                       5.9556289384E+00  8.6530606512E-01  4.2371781155E-02
                       5.9556289384E+00  8.6530606512E-01  3.1705322669E+00
                       5.9855628804E+00  8.8177102223E-01  6.4173682572E+00
                       5.9855628804E+00  8.8177102223E-01  9.6471519829E+00
                       8.5710671672E-01  2.0586468035E+00  1.6064520240E+00
                       8.6688282897E-01  2.0589832046E+00  4.8093201910E+00
                       8.6845895766E-01  2.0650104442E+00  8.0322601200E+00
                       8.6688282897E-01  2.0589832046E+00  1.1255200049E+01
                       7.1743226891E+00  5.9727201244E+00  1.6064520240E+00
                       7.1645465768E+00  5.9723837233E+00  4.8093201910E+00
                       7.1629704482E+00  5.9663564838E+00  8.0322601200E+00
                       7.1645465768E+00  5.9723837233E+00  1.1255200049E+01
            xcart      7.5695224642E+00  1.9078552100E-02  3.0357543710E+00
                       7.5695224642E+00  1.9078552100E-02  9.0660747797E+00
                       7.5695224642E+00  1.9078552100E-02  1.5178771855E+01
                       7.5695224642E+00  1.9078552100E-02  2.1291468930E+01
                       1.9078552100E-02  7.5694634311E+00 -1.1961773294E-03
                       1.9078552100E-02  7.5694634311E+00  6.0727049193E+00
                       1.9078552100E-02  7.5694634311E+00  1.2147702525E+01
                       1.9078552100E-02  7.5694634311E+00  1.8209841185E+01
                       1.9249800927E+00  1.2464698116E+01  3.0357543710E+00
                       1.9397672697E+00  1.2469345817E+01  9.0978522914E+00
                       1.9300113849E+00  1.2454597275E+01  1.5178771855E+01
                       1.9397672697E+00  1.2469345817E+01  2.1259691418E+01
                       1.3252221940E+01  2.7123858506E+00  3.0357543710E+00
                       1.3237434763E+01  2.7077381494E+00  9.0978522914E+00
                       1.3247190648E+01  2.7224866911E+00  1.5178771855E+01
                       1.3237434763E+01  2.7077381494E+00  2.1259691418E+01
                       2.6822560766E+00  1.9229963745E+00  1.0099751371E-02
                       2.6822560766E+00  1.9229963745E+00  6.0614089906E+00
                       2.6892246137E+00  1.9146589918E+00  1.2144566846E+01
                       2.6892246137E+00  1.9146589918E+00  1.8212976864E+01
                       1.2494945956E+01  1.3254087592E+01  1.0099751371E-02
                       1.2494945956E+01  1.3254087592E+01  6.0614089906E+00
                       1.2487977419E+01  1.3262424975E+01  1.2144566846E+01
                       1.2487977419E+01  1.3262424975E+01  1.8212976864E+01
                       5.3780579783E+00  1.0377400413E+01  2.7491298577E-02
                       5.3780579783E+00  1.0377400413E+01  6.0440174434E+00
                       5.3720271567E+00  1.0376874121E+01  1.2135509269E+01
                       5.3720271567E+00  1.0376874121E+01  1.8222034441E+01
                       9.7991440543E+00  4.7996835536E+00  2.7491298577E-02
                       9.7991440543E+00  4.7996835536E+00  6.0440174434E+00
                       9.8051748759E+00  4.8002098454E+00  1.2135509269E+01
                       9.8051748759E+00  4.8002098454E+00  1.8222034441E+01
                       4.7875078599E+00  5.3332711752E+00  3.0357543710E+00
                       4.8067721856E+00  5.3409286651E+00  9.0998706746E+00
                       4.8021678342E+00  5.3669614503E+00  1.5178771855E+01
                       4.8067721856E+00  5.3409286651E+00  2.1257673035E+01
                       1.0389694173E+01  9.8438127913E+00  3.0357543710E+00
                       1.0370429847E+01  9.8361553014E+00  9.0998706746E+00
                       1.0375034198E+01  9.8101225162E+00  1.5178771855E+01
                       1.0370429847E+01  9.8361553014E+00  2.1257673035E+01
                       8.8781738081E+00  1.1144885977E+01  3.0494390660E-02
                       8.8781738081E+00  1.1144885977E+01  6.0410143513E+00
                       8.8809029309E+00  1.1067420148E+01  1.2142744030E+01
                       8.8809029309E+00  1.1067420148E+01  1.8214799679E+01
                       6.2990282245E+00  4.0321979899E+00  3.0494390660E-02
                       6.2990282245E+00  4.0321979899E+00  6.0410143513E+00
                       6.2962991017E+00  4.1096638185E+00  1.2142744030E+01
                       6.2962991017E+00  4.1096638185E+00  1.8214799679E+01
                       4.1190854892E+00  8.8379244132E+00  3.0357543710E+00
                       4.1399918069E+00  8.8612407885E+00  9.0757463337E+00
                       4.1107518233E+00  8.8743160494E+00  1.5178771855E+01
                       4.1399918069E+00  8.8612407885E+00  2.1281797376E+01
                       1.1058116543E+01  6.3391595533E+00  3.0357543710E+00
                       1.1037210226E+01  6.3158431780E+00  9.0757463337E+00
                       1.1066450209E+01  6.3027679171E+00  1.5178771855E+01
                       1.1037210226E+01  6.3158431780E+00  2.1281797376E+01
                       3.9226943900E+00  1.3541892482E+01  8.0071062146E-02
                       3.9226943900E+00  1.3541892482E+01  5.9914376798E+00
                       3.8661274374E+00  1.3510778223E+01  1.2127068500E+01
                       3.8661274374E+00  1.3510778223E+01  1.8230475210E+01
                       1.1254507643E+01  1.6351914842E+00  8.0071062146E-02
                       1.1254507643E+01  1.6351914842E+00  5.9914376798E+00
                       1.1311074595E+01  1.6663057439E+00  1.2127068500E+01
                       1.1311074595E+01  1.6663057439E+00  1.8230475210E+01
                       1.6196969613E+00  3.8902786630E+00  3.0357543710E+00
                       1.6381711361E+00  3.8909143689E+00  9.0882980463E+00
                       1.6411495876E+00  3.9023042010E+00  1.5178771855E+01
                       1.6381711361E+00  3.8909143689E+00  2.1269245664E+01
                       1.3557505071E+01  1.1286805303E+01  3.0357543710E+00
                       1.3539030897E+01  1.1286169598E+01  9.0882980463E+00
                       1.3536052445E+01  1.1274779765E+01  1.5178771855E+01
                       1.3539030897E+01  1.1286169598E+01  2.1269245664E+01
             xred      5.0000000000E-01 -2.1684043450E-19  1.2500000000E-01
                       5.0000000000E-01 -2.1684043450E-19  3.7330403220E-01
                       5.0000000000E-01 -2.1684043450E-19  6.2500000000E-01
                       5.0000000000E-01 -2.1684043450E-19  8.7669596780E-01
                      -5.5511151231E-17  5.0000000000E-01 -4.9253710249E-05
                      -5.5511151231E-17  5.0000000000E-01  2.5004925371E-01
                      -5.5511151231E-17  5.0000000000E-01  5.0019291090E-01
                      -5.5511151231E-17  5.0000000000E-01  7.4980708910E-01
                       1.2507891490E-01  8.2303888380E-01  1.2500000000E-01
                       1.2605490490E-01  8.2334342720E-01  3.7461250070E-01
                       1.2541293750E-01  8.2237083210E-01  6.2500000000E-01
                       1.2605490490E-01  8.2334342720E-01  8.7538749930E-01
                       8.7492108510E-01  1.7696111620E-01  1.2500000000E-01
                       8.7394509510E-01  1.7665657280E-01  3.7461250070E-01
                       8.7458706250E-01  1.7762916790E-01  6.2500000000E-01
                       8.7394509510E-01  1.7665657280E-01  8.7538749930E-01
                       1.7685569050E-01  1.2657753690E-01  4.1586662396E-04
                       1.7685569050E-01  1.2657753690E-01  2.4958413338E-01
                       1.7731738380E-01  1.2602564840E-01  5.0006379640E-01
                       1.7731738380E-01  1.2602564840E-01  7.4993620360E-01
                       8.2314430950E-01  8.7342246310E-01  4.1586662396E-04
                       8.2314430950E-01  8.7342246310E-01  2.4958413338E-01
                       8.2268261620E-01  8.7397435160E-01  5.0006379640E-01
                       8.2268261620E-01  8.7397435160E-01  7.4993620360E-01
                       3.5351874240E-01  6.8458691000E-01  1.1319797000E-03
                       3.5351874240E-01  6.8458691000E-01  2.4886802030E-01
                       3.5312046540E-01  6.8455314970E-01  4.9969084230E-01
                       3.5312046540E-01  6.8455314970E-01  7.5030915770E-01
                       6.4648125760E-01  3.1541309000E-01  1.1319797000E-03
                       6.4648125760E-01  3.1541309000E-01  2.4886802030E-01
                       6.4687953460E-01  3.1544685030E-01  4.9969084230E-01
                       6.4687953460E-01  3.1544685030E-01  7.5030915770E-01
                       3.1534987170E-01  3.5149376080E-01  1.2500000000E-01
                       3.1662109770E-01  3.5199637130E-01  3.7469560950E-01
                       3.1631262410E-01  3.5371674130E-01  6.2500000000E-01
                       3.1662109770E-01  3.5199637130E-01  8.7530439050E-01
                       6.8465012830E-01  6.4850623920E-01  1.2500000000E-01
                       6.8337890230E-01  6.4800362870E-01  3.7469560950E-01
                       6.8368737590E-01  6.4628325870E-01  6.2500000000E-01
                       6.8337890230E-01  6.4800362870E-01  8.7530439050E-01
                       5.8459036220E-01  7.3470066950E-01  1.2556348000E-03
                       5.8459036220E-01  7.3470066950E-01  2.4874436520E-01
                       5.8478353100E-01  7.2958318660E-01  4.9998874030E-01
                       5.8478353100E-01  7.2958318660E-01  7.5001125970E-01
                       4.1540963780E-01  2.6529933050E-01  1.2556348000E-03
                       4.1540963780E-01  2.6529933050E-01  2.4874436520E-01
                       4.1521646900E-01  2.7041681340E-01  4.9998874030E-01
                       4.1521646900E-01  2.7041681340E-01  7.5001125970E-01
                       2.7061389100E-01  5.8310596590E-01  1.2500000000E-01
                       2.7199097140E-01  5.8464265540E-01  3.7370226740E-01
                       2.7005735370E-01  5.8551121380E-01  6.2500000000E-01
                       2.7199097140E-01  5.8464265540E-01  8.7629773260E-01
                       7.2938610900E-01  4.1689403410E-01  1.2500000000E-01
                       7.2800902860E-01  4.1535734460E-01  3.7370226740E-01
                       7.2994264630E-01  4.1448878620E-01  6.2500000000E-01
                       7.2800902860E-01  4.1535734460E-01  8.7629773260E-01
                       2.5685816200E-01  8.9386068390E-01  3.2970002000E-03
                       2.5685816200E-01  8.9386068390E-01  2.4670299980E-01
                       2.5312682430E-01  8.9181483990E-01  4.9934328580E-01
                       2.5312682430E-01  8.9181483990E-01  7.5065671420E-01
                       7.4314183800E-01  1.0613931610E-01  3.2970002000E-03
                       7.4314183800E-01  1.0613931610E-01  2.4670299980E-01
                       7.4687317570E-01  1.0818516010E-01  4.9934328580E-01
                       7.4687317570E-01  1.0818516010E-01  7.5065671420E-01
                       1.0634104680E-01  2.5670386230E-01  1.2500000000E-01
                       1.0756124860E-01  2.5674277830E-01  3.7421909580E-01
                       1.0775609330E-01  2.5749464120E-01  6.2500000000E-01
                       1.0756124860E-01  2.5674277830E-01  8.7578090420E-01
                       8.9365895320E-01  7.4329613770E-01  1.2500000000E-01
                       8.9243875140E-01  7.4325722170E-01  3.7421909580E-01
                       8.9224390670E-01  7.4250535880E-01  6.2500000000E-01
                       8.9243875140E-01  7.4325722170E-01  8.7578090420E-01
            znucl       63.00000   38.00000    3.00000   13.00000    7.00000    8.00000
 
================================================================================


- Timing analysis has been suppressed with timopt=0



================================================================================

 Suggested references for the acknowledgment of ABINIT usage.

 The users of ABINIT have little formal obligations with respect to the ABINIT group
 (those specified in the GNU General Public License, http://www.gnu.org/copyleft/gpl.txt).
 However, it is common practice in the scientific literature,
 to acknowledge the efforts of people that have made the research possible.
 In this spirit, please find below suggested citations of work written by ABINIT developers,
 corresponding to implementations inside of ABINIT that you have used in the present run.
 Note also that it will be of great value to readers of publications presenting these results,
 to read papers enabling them to understand the theoretical formalism and details
 of the ABINIT implementation.
 For information on why they are suggested, see also https://docs.abinit.org/theory/acknowledgments.
-
- [1] Gamma and beta cerium: DFT+U calculations of ground-state parameters.
- B. Amadon, F. Jollet and M. Torrent, Phys. Rev. B 77, 155104 (2008).
- Comment: DFT+U calculations, usepawu/=0. Strong suggestion to cite this paper.
- DOI and bibtex: see https://docs.abinit.org/theory/bibliography/#amadon2008a
-
- [2] Implementation of the Projector Augmented-Wave Method in the ABINIT code.
- M. Torrent, F. Jollet, F. Bottin, G. Zerah, and X. Gonze Comput. Mat. Science 42, 337, (2008).
- Comment: PAW calculations. Strong suggestion to cite this paper.
- DOI and bibtex: see https://docs.abinit.org/theory/bibliography/#torrent2008
-
- [3] Libxc: A library of exchange and correlation functionals for density functional theory.
- M.A.L. Marques, M.J.T. Oliveira, T. Burnus, Computer Physics Communications 183, 2227 (2012).
- Comment: to be cited when LibXC is used (negative value of ixc)
- Strong suggestion to cite this paper.
- DOI and bibtex: see https://docs.abinit.org/theory/bibliography/#marques2012
-
- [4] Large scale ab initio calculations based on three levels of parallelization
- F. Bottin, S. Leroux, A. Knyazev, G. Zerah, Comput. Mat. Science 42, 329, (2008).
- Comment: in case LOBPCG algorithm is used (wfoptalg=4/14/114).
- Strong suggestion to cite this paper in your publications.
- This paper is also available at http://www.arxiv.org/abs/0707.3405
- DOI and bibtex: see https://docs.abinit.org/theory/bibliography/#bottin2008
-
- [5] The Abinit project: Impact, environment and recent developments.
- Computer Phys. Comm. 248, 107042 (2020).
- X.Gonze, B. Amadon, G. Antonius, F.Arnardi, L.Baguet, J.-M.Beuken,
- J.Bieder, F.Bottin, J.Bouchet, E.Bousquet, N.Brouwer, F.Bruneval,
- G.Brunin, T.Cavignac, J.-B. Charraud, Wei Chen, M.Cote, S.Cottenier,
- J.Denier, G.Geneste, Ph.Ghosez, M.Giantomassi, Y.Gillet, O.Gingras,
- D.R.Hamann, G.Hautier, Xu He, N.Helbig, N.Holzwarth, Y.Jia, F.Jollet,
- W.Lafargue-Dit-Hauret, K.Lejaeghere, M.A.L.Marques, A.Martin, C.Martins,
- H.P.C. Miranda, F.Naccarato, K. Persson, G.Petretto, V.Planes, Y.Pouillon,
- S.Prokhorenko, F.Ricci, G.-M.Rignanese, A.H.Romero, M.M.Schmitt, M.Torrent,
- M.J.van Setten, B.Van Troeye, M.J.Verstraete, G.Zerah and J.W.Zwanzig
- Comment: the fifth generic paper describing the ABINIT project.
- Note that a version of this paper, that is not formatted for Computer Phys. Comm. 
- is available at https://www.abinit.org/sites/default/files/ABINIT20.pdf .
- The licence allows the authors to put it on the Web.
- DOI and bibtex: see https://docs.abinit.org/theory/bibliography/#gonze2020
-
- [6] ABINIT: Overview, and focus on selected capabilities
- J. Chem. Phys. 152, 124102 (2020).
- A. Romero, D.C. Allan, B. Amadon, G. Antonius, T. Applencourt, L.Baguet,
- J.Bieder, F.Bottin, J.Bouchet, E.Bousquet, F.Bruneval,
- G.Brunin, D.Caliste, M.Cote,
- J.Denier, C. Dreyer, Ph.Ghosez, M.Giantomassi, Y.Gillet, O.Gingras,
- D.R.Hamann, G.Hautier, F.Jollet, G. Jomard,
- A.Martin, 
- H.P.C. Miranda, F.Naccarato, G.Petretto, N.A. Pike, V.Planes,
- S.Prokhorenko, T. Rangel, F.Ricci, G.-M.Rignanese, M.Royo, M.Stengel, M.Torrent,
- M.J.van Setten, B.Van Troeye, M.J.Verstraete, J.Wiktor, J.W.Zwanziger, and X.Gonze.
- Comment: a global overview of ABINIT, with focus on selected capabilities .
- Note that a version of this paper, that is not formatted for J. Chem. Phys 
- is available at https://www.abinit.org/sites/default/files/ABINIT20_JPC.pdf .
- The licence allows the authors to put it on the Web.
- DOI and bibtex: see https://docs.abinit.org/theory/bibliography/#romero2020
-
- [7] Recent developments in the ABINIT software package.
- Computer Phys. Comm. 205, 106 (2016).
- X.Gonze, F.Jollet, F.Abreu Araujo, D.Adams, B.Amadon, T.Applencourt,
- C.Audouze, J.-M.Beuken, J.Bieder, A.Bokhanchuk, E.Bousquet, F.Bruneval
- D.Caliste, M.Cote, F.Dahm, F.Da Pieve, M.Delaveau, M.Di Gennaro,
- B.Dorado, C.Espejo, G.Geneste, L.Genovese, A.Gerossier, M.Giantomassi,
- Y.Gillet, D.R.Hamann, L.He, G.Jomard, J.Laflamme Janssen, S.Le Roux,
- A.Levitt, A.Lherbier, F.Liu, I.Lukacevic, A.Martin, C.Martins,
- M.J.T.Oliveira, S.Ponce, Y.Pouillon, T.Rangel, G.-M.Rignanese,
- A.H.Romero, B.Rousseau, O.Rubel, A.A.Shukri, M.Stankovski, M.Torrent,
- M.J.Van Setten, B.Van Troeye, M.J.Verstraete, D.Waroquier, J.Wiktor,
- B.Xu, A.Zhou, J.W.Zwanziger.
- Comment: the fourth generic paper describing the ABINIT project.
- Note that a version of this paper, that is not formatted for Computer Phys. Comm. 
- is available at https://www.abinit.org/sites/default/files/ABINIT16.pdf .
- The licence allows the authors to put it on the Web.
- DOI and bibtex: see https://docs.abinit.org/theory/bibliography/#gonze2016
-
- Proc.   0 individual time (sec): cpu=        168.9  wall=        171.8
 
================================================================================
 
 Calculation completed.
.Delivered   0 WARNINGs and   0 COMMENTs to log file.
+Overall time at end (sec) : cpu=       6820.9  wall=       6861.3
