
.Version 9.4.2 of ABINIT 
.(MPI version, prepared for a x86_64_linux_intel19.1 computer) 

.Copyright (C) 1998-2021 ABINIT group . 
 ABINIT comes with ABSOLUTELY NO WARRANTY.
 It is free software, and you are welcome to redistribute it
 under certain conditions (GNU General Public License,
 see ~abinit/COPYING or http://www.gnu.org/copyleft/gpl.txt).

 ABINIT is a project of the Universite Catholique de Louvain,
 Corning Inc. and other collaborators, see ~abinit/doc/developers/contributors.txt .
 Please read https://docs.abinit.org/theory/acknowledgments for suggested
 acknowledgments of the ABINIT effort.
 For more information, see https://www.abinit.org .

.Starting date : Wed 25 Aug 2021.
- ( at 07h07 )
  
- input  file    -> /scratch/users/j/b/jbouq/LumiWork_tuto/delta_SCF_no_BS/flow_deltaSCF/w0/t3/run.abi
- output file    -> /scratch/users/j/b/jbouq/LumiWork_tuto/delta_SCF_no_BS/flow_deltaSCF/w0/t3/run.abo
- root for input  files -> /scratch/users/j/b/jbouq/LumiWork_tuto/delta_SCF_no_BS/flow_deltaSCF/w0/t3/indata/in
- root for output files -> /scratch/users/j/b/jbouq/LumiWork_tuto/delta_SCF_no_BS/flow_deltaSCF/w0/t3/outdata/out
 
- inpspheads : Reading pseudopotential header in XML form from 
-   /home/ucl/modl/jbouq/psps_paw_pbe/Eu.GGA_PBE-JTH.xml
- inpspheads : Reading pseudopotential header in XML form from 
-   /home/ucl/modl/jbouq/psps_paw_pbe/Sr.GGA_PBE-JTH.xml
- inpspheads : Reading pseudopotential header in XML form from 
-   /home/ucl/modl/jbouq/psps_paw_pbe/Li.GGA_PBE-JTH.xml
- inpspheads : Reading pseudopotential header in XML form from 
-   /home/ucl/modl/jbouq/psps_paw_pbe/Al.GGA_PBE-JTH.xml
- inpspheads : Reading pseudopotential header in XML form from 
-   /home/ucl/modl/jbouq/psps_paw_pbe/N.GGA_PBE-JTH.xml
- inpspheads : Reading pseudopotential header in XML form from 
-   /home/ucl/modl/jbouq/psps_paw_pbe/O.GGA_PBE-JTH.xml
 
 Symmetries : space group P2/m (# 10); Bravais mP (primitive monocl.)
================================================================================
 Values of the parameters that define the memory need of the present run
     intxc =       0    ionmov =       0      iscf =      17    lmnmax =      32
     lnmax =       8     mgfft =      90  mpssoang =       4    mqgrid =    5989
     natom =      72  nloc_mem =       2    nspden =       2   nspinor =       1
    nsppol =       2      nsym =       4    n1xccc =       1    ntypat =       6
    occopt =       2   xclevel =       2
-    mband =         204        mffmem =           1         mkmem =           1
       mpw =        1624          nfft =       29160          nkpt =           2
Pmy_natom=        18
 PAW method is used; the additional fine FFT grid is defined by:
   mgfftf=       120    nfftf =     76800
================================================================================
P This job should need less than                     105.119 Mbytes of memory.
  Rough estimation (10% accuracy) of disk space for files :
_ WF disk file :    202.209 Mbytes ; DEN or POT disk file :      1.174 Mbytes.
================================================================================
 
--------------------------------------------------------------------------------
------------- Echo of variables that govern the present computation ------------
--------------------------------------------------------------------------------
-
- outvars: echo of selected default values                                      
-   iomode0 =  0 , fftalg0 =512 , wfoptalg0 = 10
-
- outvars: echo of global parameters not present in the input file              
-  max_nthreads =    0
-
 -outvars: echo values of preprocessed input variables --------
-          iomode           1
            acell      1.0000000000E+00  1.0000000000E+00  1.0000000000E+00 Bohr
              amu      1.51965000E+02  8.76200000E+01  6.94100000E+00
                       2.69815390E+01  1.40067400E+01  1.59994000E+01
           bandpp          68
          chkprim           0
      chksymbreak           0
     densfor_pred           6
           diemac      5.00000000E+00
             ecut      1.50000000E+01 Hartree
-          fftalg         401
           irdden           1
              ixc     -101130
            jpawu      2.57245278E-02  0.00000000E+00  0.00000000E+00  0.00000000E+00  0.00000000E+00  0.00000000E+00 Hartree
              kpt      2.50000000E-01  2.50000000E-01  2.50000000E-01
                      -2.50000000E-01  2.50000000E-01  2.50000000E-01
         kptrlatt        2    0    0      0    2    0      0    0    2
          kptrlen      3.02779499E+01
            lpawu           3      -1      -1      -1      -1      -1
P           mkmem           1
            natom          72
            nband         204     204     204     204
            ngfft          54      60      90
          ngfftdg          80      80     120
             nkpt           2
-           npfft          10
-        np_spkpt           4
           nspden           2
           nsppol           2
            nstep         100
             nsym           4
           ntypat           6
              occ      1.000000  1.000000  1.000000  1.000000  1.000000  1.000000
                       1.000000  1.000000  1.000000  1.000000  1.000000  1.000000
                       1.000000  1.000000  1.000000  1.000000  1.000000  1.000000
                       1.000000  1.000000  1.000000  1.000000  1.000000  1.000000
                       1.000000  1.000000  1.000000  1.000000  1.000000  1.000000
                       1.000000  1.000000  1.000000  1.000000  1.000000  1.000000
                       1.000000  1.000000  1.000000  1.000000  1.000000  1.000000
                       1.000000  1.000000  1.000000  1.000000  1.000000  1.000000
                       1.000000  1.000000  1.000000  1.000000  1.000000  1.000000
                       1.000000  1.000000  1.000000  1.000000  1.000000  1.000000
                       1.000000  1.000000  1.000000  1.000000  1.000000  1.000000
                       1.000000  1.000000  1.000000  1.000000  1.000000  1.000000
                       1.000000  1.000000  1.000000  1.000000  1.000000  1.000000
                       1.000000  1.000000  1.000000  1.000000  1.000000  1.000000
                       1.000000  1.000000  1.000000  1.000000  1.000000  1.000000
                       1.000000  1.000000  1.000000  1.000000  1.000000  1.000000
                       1.000000  1.000000  1.000000  1.000000  1.000000  1.000000
                       1.000000  1.000000  1.000000  1.000000  1.000000  1.000000
                       1.000000  1.000000  1.000000  1.000000  1.000000  1.000000
                       1.000000  1.000000  1.000000  1.000000  1.000000  1.000000
                       1.000000  1.000000  1.000000  1.000000  1.000000  1.000000
                       1.000000  1.000000  1.000000  1.000000  1.000000  1.000000
                       1.000000  1.000000  1.000000  1.000000  1.000000  1.000000
                       1.000000  1.000000  1.000000  1.000000  1.000000  1.000000
                       1.000000  1.000000  1.000000  1.000000  1.000000  1.000000
                       1.000000  1.000000  1.000000  1.000000  1.000000  1.000000
                       1.000000  1.000000  1.000000  1.000000  1.000000  1.000000
                       1.000000  1.000000  1.000000  1.000000  1.000000  1.000000
                       1.000000  1.000000  1.000000  1.000000  1.000000  1.000000
                       1.000000  1.000000  1.000000  1.000000  1.000000  1.000000
                       1.000000  1.000000  0.000000  1.000000  0.000000  0.000000
                       0.000000  0.000000  0.000000  0.000000  0.000000  0.000000
                       0.000000  0.000000  0.000000  0.000000  0.000000  0.000000
                       0.000000  0.000000  0.000000  0.000000  0.000000  0.000000
                       1.000000  1.000000  1.000000  1.000000  1.000000  1.000000
                       1.000000  1.000000  1.000000  1.000000  1.000000  1.000000
                       1.000000  1.000000  1.000000  1.000000  1.000000  1.000000
                       1.000000  1.000000  1.000000  1.000000  1.000000  1.000000
                       1.000000  1.000000  1.000000  1.000000  1.000000  1.000000
                       1.000000  1.000000  1.000000  1.000000  1.000000  1.000000
                       1.000000  1.000000  1.000000  1.000000  1.000000  1.000000
                       1.000000  1.000000  1.000000  1.000000  1.000000  1.000000
                       1.000000  1.000000  1.000000  1.000000  1.000000  1.000000
                       1.000000  1.000000  1.000000  1.000000  1.000000  1.000000
                       1.000000  1.000000  1.000000  1.000000  1.000000  1.000000
                       1.000000  1.000000  1.000000  1.000000  1.000000  1.000000
                       1.000000  1.000000  1.000000  1.000000  1.000000  1.000000
                       1.000000  1.000000  1.000000  1.000000  1.000000  1.000000
                       1.000000  1.000000  1.000000  1.000000  1.000000  1.000000
                       1.000000  1.000000  1.000000  1.000000  1.000000  1.000000
                       1.000000  1.000000  1.000000  1.000000  1.000000  1.000000
                       1.000000  1.000000  1.000000  1.000000  1.000000  1.000000
                       1.000000  1.000000  1.000000  1.000000  1.000000  1.000000
                       1.000000  1.000000  1.000000  1.000000  1.000000  1.000000
                       1.000000  1.000000  1.000000  1.000000  1.000000  1.000000
                       1.000000  1.000000  1.000000  1.000000  1.000000  1.000000
                       1.000000  1.000000  1.000000  1.000000  1.000000  1.000000
                       1.000000  1.000000  1.000000  1.000000  1.000000  1.000000
                       1.000000  1.000000  1.000000  1.000000  1.000000  1.000000
                       1.000000  1.000000  1.000000  1.000000  1.000000  1.000000
                       1.000000  1.000000  1.000000  1.000000  1.000000  1.000000
                       1.000000  1.000000  1.000000  1.000000  1.000000  1.000000
                       1.000000  1.000000  1.000000  1.000000  1.000000  1.000000
                       1.000000  1.000000  1.000000  1.000000  1.000000  1.000000
                       1.000000  1.000000  0.000000  1.000000  0.000000  0.000000
                       0.000000  0.000000  0.000000  0.000000  0.000000  0.000000
                       0.000000  0.000000  0.000000  0.000000  0.000000  0.000000
                       0.000000  0.000000  0.000000  0.000000  0.000000  0.000000
                       1.000000  1.000000  1.000000  1.000000  1.000000  1.000000
                       1.000000  1.000000  1.000000  1.000000  1.000000  1.000000
                       1.000000  1.000000  1.000000  1.000000  1.000000  1.000000
                       1.000000  1.000000  1.000000  1.000000  1.000000  1.000000
                       1.000000  1.000000  1.000000  1.000000  1.000000  1.000000
                       1.000000  1.000000  1.000000  1.000000  1.000000  1.000000
                       1.000000  1.000000  1.000000  1.000000  1.000000  1.000000
                       1.000000  1.000000  1.000000  1.000000  1.000000  1.000000
                       1.000000  1.000000  1.000000  1.000000  1.000000  1.000000
                       1.000000  1.000000  1.000000  1.000000  1.000000  1.000000
                       1.000000  1.000000  1.000000  1.000000  1.000000  1.000000
                       1.000000  1.000000  1.000000  1.000000  1.000000  1.000000
                       1.000000  1.000000  1.000000  1.000000  1.000000  1.000000
                       1.000000  1.000000  1.000000  1.000000  1.000000  1.000000
                       1.000000  1.000000  1.000000  1.000000  1.000000  1.000000
                       1.000000  1.000000  1.000000  1.000000  1.000000  1.000000
                       1.000000  1.000000  1.000000  1.000000  1.000000  1.000000
                       1.000000  1.000000  1.000000  1.000000  1.000000  1.000000
                       1.000000  1.000000  1.000000  1.000000  1.000000  1.000000
                       1.000000  1.000000  1.000000  1.000000  1.000000  1.000000
                       1.000000  1.000000  1.000000  1.000000  1.000000  1.000000
                       1.000000  1.000000  1.000000  1.000000  1.000000  1.000000
                       1.000000  1.000000  1.000000  1.000000  1.000000  1.000000
                       1.000000  1.000000  1.000000  1.000000  1.000000  1.000000
                       1.000000  1.000000  1.000000  1.000000  1.000000  1.000000
                       1.000000  1.000000  1.000000  1.000000  1.000000  1.000000
                       1.000000  1.000000  1.000000  1.000000  1.000000  1.000000
                       1.000000  1.000000  1.000000  1.000000  1.000000  1.000000
                       1.000000  1.000000  1.000000  1.000000  1.000000  1.000000
                       1.000000  1.000000  0.000000  0.000000  0.000000  0.000000
                       0.000000  0.000000  0.000000  0.000000  0.000000  0.000000
                       0.000000  0.000000  0.000000  0.000000  0.000000  0.000000
                       0.000000  0.000000  0.000000  0.000000  0.000000  0.000000
                       0.000000  0.000000  0.000000  0.000000  0.000000  0.000000
                       1.000000  1.000000  1.000000  1.000000  1.000000  1.000000
                       1.000000  1.000000  1.000000  1.000000  1.000000  1.000000
                       1.000000  1.000000  1.000000  1.000000  1.000000  1.000000
                       1.000000  1.000000  1.000000  1.000000  1.000000  1.000000
                       1.000000  1.000000  1.000000  1.000000  1.000000  1.000000
                       1.000000  1.000000  1.000000  1.000000  1.000000  1.000000
                       1.000000  1.000000  1.000000  1.000000  1.000000  1.000000
                       1.000000  1.000000  1.000000  1.000000  1.000000  1.000000
                       1.000000  1.000000  1.000000  1.000000  1.000000  1.000000
                       1.000000  1.000000  1.000000  1.000000  1.000000  1.000000
                       1.000000  1.000000  1.000000  1.000000  1.000000  1.000000
                       1.000000  1.000000  1.000000  1.000000  1.000000  1.000000
                       1.000000  1.000000  1.000000  1.000000  1.000000  1.000000
                       1.000000  1.000000  1.000000  1.000000  1.000000  1.000000
                       1.000000  1.000000  1.000000  1.000000  1.000000  1.000000
                       1.000000  1.000000  1.000000  1.000000  1.000000  1.000000
                       1.000000  1.000000  1.000000  1.000000  1.000000  1.000000
                       1.000000  1.000000  1.000000  1.000000  1.000000  1.000000
                       1.000000  1.000000  1.000000  1.000000  1.000000  1.000000
                       1.000000  1.000000  1.000000  1.000000  1.000000  1.000000
                       1.000000  1.000000  1.000000  1.000000  1.000000  1.000000
                       1.000000  1.000000  1.000000  1.000000  1.000000  1.000000
                       1.000000  1.000000  1.000000  1.000000  1.000000  1.000000
                       1.000000  1.000000  1.000000  1.000000  1.000000  1.000000
                       1.000000  1.000000  1.000000  1.000000  1.000000  1.000000
                       1.000000  1.000000  1.000000  1.000000  1.000000  1.000000
                       1.000000  1.000000  1.000000  1.000000  1.000000  1.000000
                       1.000000  1.000000  1.000000  1.000000  1.000000  1.000000
                       1.000000  1.000000  1.000000  1.000000  1.000000  1.000000
                       1.000000  1.000000  0.000000  0.000000  0.000000  0.000000
                       0.000000  0.000000  0.000000  0.000000  0.000000  0.000000
                       0.000000  0.000000  0.000000  0.000000  0.000000  0.000000
                       0.000000  0.000000  0.000000  0.000000  0.000000  0.000000
                       0.000000  0.000000  0.000000  0.000000  0.000000  0.000000
           occopt           2
        paral_kgb           1
        pawecutdg      3.00000000E+01 Hartree
         pawmixdg           1
            prtwf          -1
            rprim      1.5139044928E+01  3.8157104200E-02  0.0000000000E+00
                       3.8157104200E-02  1.5138926862E+01  0.0000000000E+00
                       0.0000000000E+00  0.0000000000E+00  2.4286034968E+01
           shiftk      5.00000000E-01  5.00000000E-01  5.00000000E-01
          spgroup          10
           spinat      0.0000000000E+00  0.0000000000E+00  7.0000000000E+00
                       0.0000000000E+00  0.0000000000E+00  0.0000000000E+00
                       0.0000000000E+00  0.0000000000E+00  0.0000000000E+00
                       0.0000000000E+00  0.0000000000E+00  0.0000000000E+00
                       0.0000000000E+00  0.0000000000E+00  0.0000000000E+00
                       0.0000000000E+00  0.0000000000E+00  0.0000000000E+00
                       0.0000000000E+00  0.0000000000E+00  0.0000000000E+00
                       0.0000000000E+00  0.0000000000E+00  0.0000000000E+00
                       0.0000000000E+00  0.0000000000E+00  0.0000000000E+00
                       0.0000000000E+00  0.0000000000E+00  0.0000000000E+00
                       0.0000000000E+00  0.0000000000E+00  0.0000000000E+00
                       0.0000000000E+00  0.0000000000E+00  0.0000000000E+00
                       0.0000000000E+00  0.0000000000E+00  0.0000000000E+00
                       0.0000000000E+00  0.0000000000E+00  0.0000000000E+00
                       0.0000000000E+00  0.0000000000E+00  0.0000000000E+00
                       0.0000000000E+00  0.0000000000E+00  0.0000000000E+00
                       0.0000000000E+00  0.0000000000E+00  0.0000000000E+00
                       0.0000000000E+00  0.0000000000E+00  0.0000000000E+00
                       0.0000000000E+00  0.0000000000E+00  0.0000000000E+00
                       0.0000000000E+00  0.0000000000E+00  0.0000000000E+00
                       0.0000000000E+00  0.0000000000E+00  0.0000000000E+00
                       0.0000000000E+00  0.0000000000E+00  0.0000000000E+00
                       0.0000000000E+00  0.0000000000E+00  0.0000000000E+00
                       0.0000000000E+00  0.0000000000E+00  0.0000000000E+00
                       0.0000000000E+00  0.0000000000E+00  0.0000000000E+00
                       0.0000000000E+00  0.0000000000E+00  0.0000000000E+00
                       0.0000000000E+00  0.0000000000E+00  0.0000000000E+00
                       0.0000000000E+00  0.0000000000E+00  0.0000000000E+00
                       0.0000000000E+00  0.0000000000E+00  0.0000000000E+00
                       0.0000000000E+00  0.0000000000E+00  0.0000000000E+00
                       0.0000000000E+00  0.0000000000E+00  0.0000000000E+00
                       0.0000000000E+00  0.0000000000E+00  0.0000000000E+00
                       0.0000000000E+00  0.0000000000E+00  0.0000000000E+00
                       0.0000000000E+00  0.0000000000E+00  0.0000000000E+00
                       0.0000000000E+00  0.0000000000E+00  0.0000000000E+00
                       0.0000000000E+00  0.0000000000E+00  0.0000000000E+00
                       0.0000000000E+00  0.0000000000E+00  0.0000000000E+00
                       0.0000000000E+00  0.0000000000E+00  0.0000000000E+00
                       0.0000000000E+00  0.0000000000E+00  0.0000000000E+00
                       0.0000000000E+00  0.0000000000E+00  0.0000000000E+00
                       0.0000000000E+00  0.0000000000E+00  0.0000000000E+00
                       0.0000000000E+00  0.0000000000E+00  0.0000000000E+00
                       0.0000000000E+00  0.0000000000E+00  0.0000000000E+00
                       0.0000000000E+00  0.0000000000E+00  0.0000000000E+00
                       0.0000000000E+00  0.0000000000E+00  0.0000000000E+00
                       0.0000000000E+00  0.0000000000E+00  0.0000000000E+00
                       0.0000000000E+00  0.0000000000E+00  0.0000000000E+00
                       0.0000000000E+00  0.0000000000E+00  0.0000000000E+00
                       0.0000000000E+00  0.0000000000E+00  0.0000000000E+00
                       0.0000000000E+00  0.0000000000E+00  0.0000000000E+00
                       0.0000000000E+00  0.0000000000E+00  0.0000000000E+00
                       0.0000000000E+00  0.0000000000E+00  0.0000000000E+00
                       0.0000000000E+00  0.0000000000E+00  0.0000000000E+00
                       0.0000000000E+00  0.0000000000E+00  0.0000000000E+00
                       0.0000000000E+00  0.0000000000E+00  0.0000000000E+00
                       0.0000000000E+00  0.0000000000E+00  0.0000000000E+00
                       0.0000000000E+00  0.0000000000E+00  0.0000000000E+00
                       0.0000000000E+00  0.0000000000E+00  0.0000000000E+00
                       0.0000000000E+00  0.0000000000E+00  0.0000000000E+00
                       0.0000000000E+00  0.0000000000E+00  0.0000000000E+00
                       0.0000000000E+00  0.0000000000E+00  0.0000000000E+00
                       0.0000000000E+00  0.0000000000E+00  0.0000000000E+00
                       0.0000000000E+00  0.0000000000E+00  0.0000000000E+00
                       0.0000000000E+00  0.0000000000E+00  0.0000000000E+00
                       0.0000000000E+00  0.0000000000E+00  0.0000000000E+00
                       0.0000000000E+00  0.0000000000E+00  0.0000000000E+00
                       0.0000000000E+00  0.0000000000E+00  0.0000000000E+00
                       0.0000000000E+00  0.0000000000E+00  0.0000000000E+00
                       0.0000000000E+00  0.0000000000E+00  0.0000000000E+00
                       0.0000000000E+00  0.0000000000E+00  0.0000000000E+00
                       0.0000000000E+00  0.0000000000E+00  0.0000000000E+00
                       0.0000000000E+00  0.0000000000E+00  0.0000000000E+00
           symrel      1  0  0   0  1  0   0  0  1      -1  0  0   0 -1  0   0  0 -1
                      -1  0  0   0 -1  0   0  0  1       1  0  0   0  1  0   0  0 -1
            tnons      0.0000000  0.0000000  0.0000000    -0.0000000 -0.0000000  0.2500000
                      -0.0000000 -0.0000000  0.0000000     0.0000000  0.0000000  0.2500000
           toldfe      1.00000000E-08 Hartree
            typat      1  2  2  2  2  2  2  2  3  3  3  3  3  3  3  3  3  3  3  3
                       3  3  3  3  4  4  4  4  4  4  4  4  4  4  4  4  4  4  4  4
                       5  5  5  5  5  5  5  5  5  5  5  5  5  5  5  5  6  6  6  6
                       6  6  6  6  6  6  6  6  6  6  6  6
            upawu      2.57245278E-01  0.00000000E+00  0.00000000E+00  0.00000000E+00  0.00000000E+00  0.00000000E+00 Hartree
          usepawu           1
           useylm           1
         wfoptalg         114
              wtk        0.50000    0.50000
           xangst      4.0056187680E+00  1.0095934944E-02  1.6064520240E+00
                       4.0056187680E+00  1.0095934944E-02  4.8210276175E+00
                       4.0056187680E+00  1.0095934944E-02  8.0322601200E+00
                       4.0056187680E+00  1.0095934944E-02  1.1243492623E+01
                       1.0095934944E-02  4.0055875290E+00 -2.0215470794E-04
                       1.0095934944E-02  4.0055875290E+00  3.2131062027E+00
                       1.0095934944E-02  4.0055875290E+00  6.4261967919E+00
                       1.0095934944E-02  4.0055875290E+00  9.6383234482E+00
                       1.0217247860E+00  6.5943499652E+00  1.6064520240E+00
                       1.0225694129E+00  6.5936654374E+00  4.8223198796E+00
                       1.0249806176E+00  6.5950367007E+00  8.0322601200E+00
                       1.0225694129E+00  6.5936654374E+00  1.1242200360E+01
                       7.0097046198E+00  1.4370169627E+00  1.6064520240E+00
                       7.0088599929E+00  1.4377014906E+00  4.8223198796E+00
                       7.0064487882E+00  1.4363302272E+00  8.0322601200E+00
                       7.0088599929E+00  1.4377014906E+00  1.1242200360E+01
                       1.4194855438E+00  1.0154564806E+00 -4.1803196117E-04
                       1.4194855438E+00  1.0154564806E+00  3.2133220800E+00
                       1.4218351583E+00  1.0161913324E+00  6.4262603405E+00
                       1.4218351583E+00  1.0161913324E+00  9.6382598995E+00
                       6.6119438620E+00  7.0159104474E+00 -4.1803196117E-04
                       6.6119438620E+00  7.0159104474E+00  3.2133220800E+00
                       6.6095942475E+00  7.0151755955E+00  6.4262603405E+00
                       6.6095942475E+00  7.0151755955E+00  9.6382598995E+00
                       2.8404285276E+00  5.4899011717E+00 -2.8390236708E-05
                       2.8404285276E+00  5.4899011717E+00  3.2129324382E+00
                       2.8424842443E+00  5.4902389612E+00  6.4261158794E+00
                       2.8424842443E+00  5.4902389612E+00  9.6384043607E+00
                       5.1910008782E+00  2.5414657563E+00 -2.8390236708E-05
                       5.1910008782E+00  2.5414657563E+00  3.2129324382E+00
                       5.1889451615E+00  2.5411279667E+00  6.4261158794E+00
                       5.1889451615E+00  2.5411279667E+00  9.6384043607E+00
                       2.5394981982E+00  2.8362834068E+00  1.6064520240E+00
                       2.5384831051E+00  2.8384633397E+00  4.8211772694E+00
                       2.5383432678E+00  2.8379800470E+00  8.0322601200E+00
                       2.5384831051E+00  2.8384633397E+00  1.1243342971E+01
                       5.4919312077E+00  5.1950835211E+00  1.6064520240E+00
                       5.4929463008E+00  5.1929035882E+00  4.8211772694E+00
                       5.4930861380E+00  5.1933868809E+00  8.0322601200E+00
                       5.4929463008E+00  5.1929035882E+00  1.1243342971E+01
                       4.6978004701E+00  5.8583626769E+00 -1.9141503410E-03
                       4.6978004701E+00  5.8583626769E+00  3.2148181983E+00
                       4.6990215655E+00  5.8605170226E+00  6.4265129545E+00
                       4.6990215655E+00  5.8605170226E+00  9.6380072856E+00
                       3.3336289358E+00  2.1730042511E+00 -1.9141503410E-03
                       3.3336289358E+00  2.1730042511E+00  3.2148181983E+00
                       3.3324078403E+00  2.1708499053E+00  6.4265129545E+00
                       3.3324078403E+00  2.1708499053E+00  9.6380072856E+00
                       2.1752377891E+00  4.6934176008E+00  1.6064520240E+00
                       2.1755122445E+00  4.6947262127E+00  4.8203563159E+00
                       2.1756741970E+00  4.6946858403E+00  8.0322601200E+00
                       2.1755122445E+00  4.6947262127E+00  1.1244163924E+01
                       5.8561916167E+00  3.3379493271E+00  1.6064520240E+00
                       5.8559171614E+00  3.3366407152E+00  4.8203563159E+00
                       5.8557552088E+00  3.3366810876E+00  8.0322601200E+00
                       5.8559171614E+00  3.3366407152E+00  1.1244163924E+01
                       2.0565788173E+00  7.1572216329E+00 -4.0667076381E-03
                       2.0565788173E+00  7.1572216329E+00  3.2169707556E+00
                       2.0666318964E+00  7.1605407112E+00  6.4265354062E+00
                       2.0666318964E+00  7.1605407112E+00  9.6379848338E+00
                       5.9748505885E+00  8.7414529499E-01 -4.0667076381E-03
                       5.9748505885E+00  8.7414529499E-01  3.2169707556E+00
                       5.9647975095E+00  8.7082621672E-01  6.4265354062E+00
                       5.9647975095E+00  8.7082621672E-01  9.6379848338E+00
                       8.6824821949E-01  2.0600565396E+00  1.6064520240E+00
                       8.6799065423E-01  2.0605749456E+00  4.8202262909E+00
                       8.6722666715E-01  2.0601317617E+00  8.0322601200E+00
                       8.6799065423E-01  2.0605749456E+00  1.1244293949E+01
                       7.1631811863E+00  5.9713103883E+00  1.6064520240E+00
                       7.1634387516E+00  5.9707919823E+00  4.8202262909E+00
                       7.1642027387E+00  5.9712351662E+00  8.0322601200E+00
                       7.1634387516E+00  5.9707919823E+00  1.1244293949E+01
            xcart      7.5695224642E+00  1.9078552100E-02  3.0357543710E+00
                       7.5695224642E+00  1.9078552100E-02  9.1104218761E+00
                       7.5695224642E+00  1.9078552100E-02  1.5178771855E+01
                       7.5695224642E+00  1.9078552100E-02  2.1247121834E+01
                       1.9078552100E-02  7.5694634311E+00 -3.8201703448E-04
                       1.9078552100E-02  7.5694634311E+00  6.0718907590E+00
                       1.9078552100E-02  7.5694634311E+00  1.2143752013E+01
                       1.9078552100E-02  7.5694634311E+00  1.8213791697E+01
                       1.9307800287E+00  1.2461515459E+01  3.0357543710E+00
                       1.9323761422E+00  1.2460221888E+01  9.1128638976E+00
                       1.9369326589E+00  1.2462813201E+01  1.5178771855E+01
                       1.9323761422E+00  1.2460221888E+01  2.1244679812E+01
                       1.3246422004E+01  2.7155685078E+00  3.0357543710E+00
                       1.3244825890E+01  2.7168620780E+00  9.1128638976E+00
                       1.3240269374E+01  2.7142707658E+00  1.5178771855E+01
                       1.3244825890E+01  2.7168620780E+00  2.1244679812E+01
                       2.6824389274E+00  1.9189346481E+00 -7.8996592140E-04
                       2.6824389274E+00  1.9189346481E+00  6.0722987079E+00
                       2.6868790553E+00  1.9203233169E+00  1.2143872102E+01
                       2.6868790553E+00  1.9203233169E+00  1.8213671608E+01
                       1.2494763105E+01  1.3258149318E+01 -7.8996592140E-04
                       1.2494763105E+01  1.3258149318E+01  6.0722987079E+00
                       1.2490322977E+01  1.3256760650E+01  1.2143872102E+01
                       1.2490322977E+01  1.3256760650E+01  1.8213671608E+01
                       5.3676320171E+00  1.0374409711E+01 -5.3649772227E-05
                       5.3676320171E+00  1.0374409711E+01  6.0715623917E+00
                       5.3715167588E+00  1.0375048041E+01  1.2143599110E+01
                       5.3715167588E+00  1.0375048041E+01  1.8213944600E+01
                       9.8095700155E+00  4.8026742554E+00 -5.3649772227E-05
                       9.8095700155E+00  4.8026742554E+00  6.0715623917E+00
                       9.8056852738E+00  4.8020359256E+00  1.2143599110E+01
                       9.8056852738E+00  4.8020359256E+00  1.8213944600E+01
                       4.7989561095E+00  5.3597988741E+00  3.0357543710E+00
                       4.7970378615E+00  5.3639183503E+00  9.1107046773E+00
                       4.7967736074E+00  5.3630050595E+00  1.5178771855E+01
                       4.7970378615E+00  5.3639183503E+00  2.1246839033E+01
                       1.0378245923E+01  9.8172850924E+00  3.0357543710E+00
                       1.0380164171E+01  9.8131656162E+00  9.1107046773E+00
                       1.0380428425E+01  9.8140789070E+00  1.5178771855E+01
                       1.0380164171E+01  9.8131656162E+00  2.1246839033E+01
                       8.8775563153E+00  1.1070701046E+01 -3.6172199217E-03
                       8.8775563153E+00  1.1070701046E+01  6.0751259619E+00
                       8.8798638514E+00  1.1074772170E+01  1.2144349473E+01
                       8.8798638514E+00  1.1074772170E+01  1.8213194236E+01
                       6.2996457173E+00  4.1063829201E+00 -3.6172199217E-03
                       6.2996457173E+00  4.1063829201E+00  6.0751259619E+00
                       6.2973381812E+00  4.1023117967E+00  1.2144349473E+01
                       6.2973381812E+00  4.1023117967E+00  1.8213194236E+01
                       4.1106036953E+00  8.8692738928E+00  3.0357543710E+00
                       4.1111223408E+00  8.8717468110E+00  9.1091532999E+00
                       4.1114283867E+00  8.8716705181E+00  1.5178771855E+01
                       4.1111223408E+00  8.8717468110E+00  2.1248390410E+01
                       1.1066598337E+01  6.3078100737E+00  3.0357543710E+00
                       1.1066079692E+01  6.3053371555E+00  9.1091532999E+00
                       1.1065773646E+01  6.3054134484E+00  1.5178771855E+01
                       1.1066079692E+01  6.3053371555E+00  2.1248390410E+01
                       3.8863707354E+00  1.3525188759E+01 -7.6849636985E-03
                       3.8863707354E+00  1.3525188759E+01  6.0791937057E+00
                       3.9053683016E+00  1.3531460908E+01  1.2144391901E+01
                       3.9053683016E+00  1.3531460908E+01  1.8213151809E+01
                       1.1290831297E+01  1.6518952079E+00 -7.6849636985E-03
                       1.1290831297E+01  1.6518952079E+00  6.0791937057E+00
                       1.1271833731E+01  1.6456230589E+00  1.2144391901E+01
                       1.1271833731E+01  1.6456230589E+00  1.8213151809E+01
                       1.6407513502E+00  3.8929426781E+00  3.0357543710E+00
                       1.6402646224E+00  3.8939223235E+00  9.1089075884E+00
                       1.6388208961E+00  3.8930848272E+00  1.5178771855E+01
                       1.6402646224E+00  3.8939223235E+00  2.1248636121E+01
                       1.3536450682E+01  1.1284141288E+01  3.0357543710E+00
                       1.3536937410E+01  1.1283161643E+01  9.1089075884E+00
                       1.3538381137E+01  1.1283999139E+01  1.5178771855E+01
                       1.3536937410E+01  1.1283161643E+01  2.1248636121E+01
             xred      5.0000000000E-01 -2.1684043450E-19  1.2500000000E-01
                       5.0000000000E-01 -2.1684043450E-19  3.7513006500E-01
                       5.0000000000E-01 -2.1684043450E-19  6.2500000000E-01
                       5.0000000000E-01 -2.1684043450E-19  8.7486993500E-01
                      -5.5511151231E-17  5.0000000000E-01 -1.5729905478E-05
                      -5.5511151231E-17  5.0000000000E-01  2.5001572991E-01
                      -5.5511151231E-17  5.0000000000E-01  5.0003024490E-01
                      -5.5511151231E-17  5.0000000000E-01  7.4996975510E-01
                       1.2546255830E-01  8.2282768680E-01  1.2500000000E-01
                       1.2556820460E-01  8.2274197390E-01  3.7523061750E-01
                       1.2586875290E-01  8.2291238520E-01  6.2500000000E-01
                       1.2556820460E-01  8.2274197390E-01  8.7476938250E-01
                       8.7453744170E-01  1.7717231320E-01  1.2500000000E-01
                       8.7443179540E-01  1.7725802610E-01  3.7523061750E-01
                       8.7413124710E-01  1.7708761480E-01  6.2500000000E-01
                       8.7443179540E-01  1.7725802610E-01  8.7476938250E-01
                       1.7686844490E-01  1.2630920790E-01 -3.2527579016E-05
                       1.7686844490E-01  1.2630920790E-01  2.5003252758E-01
                       1.7716150540E-01  1.2640019760E-01  5.0003518970E-01
                       1.7716150540E-01  1.2640019760E-01  7.4996481030E-01
                       8.2313155510E-01  8.7369079210E-01 -3.2527579016E-05
                       8.2313155510E-01  8.7369079210E-01  2.5003252758E-01
                       8.2283849460E-01  8.7359980240E-01  5.0003518970E-01
                       8.2283849460E-01  8.7359980240E-01  7.4996481030E-01
                       3.5283055570E-01  6.8439109410E-01 -2.2090790982E-06
                       3.5283055570E-01  6.8439109410E-01  2.5000220908E-01
                       3.5308705520E-01  6.8443261240E-01  5.0002394900E-01
                       3.5308705520E-01  6.8443261240E-01  7.4997605100E-01
                       6.4716944430E-01  3.1560890590E-01 -2.2090790982E-06
                       6.4716944430E-01  3.1560890590E-01  2.5000220908E-01
                       6.4691294480E-01  3.1556738760E-01  5.0002394900E-01
                       6.4691294480E-01  3.1556738760E-01  7.4997605100E-01
                       3.1610166680E-01  3.5324414990E-01  1.2500000000E-01
                       3.1597427150E-01  3.5351658250E-01  3.7514170960E-01
                       3.1595696830E-01  3.5345629880E-01  6.2500000000E-01
                       3.1597427150E-01  3.5351658250E-01  8.7485829040E-01
                       6.8389833320E-01  6.4675585010E-01  1.2500000000E-01
                       6.8402572850E-01  6.4648341750E-01  3.7514170960E-01
                       6.8404303170E-01  6.4654370120E-01  6.2500000000E-01
                       6.8402572850E-01  6.4648341750E-01  8.7485829040E-01
                       5.8456192480E-01  7.2980046450E-01 -1.4894238300E-04
                       5.8456192480E-01  7.2980046450E-01  2.5014894238E-01
                       5.8471367080E-01  7.3006899960E-01  5.0005484590E-01
                       5.8471367080E-01  7.3006899960E-01  7.4994515410E-01
                       4.1543807520E-01  2.7019953550E-01 -1.4894238300E-04
                       4.1543807520E-01  2.7019953550E-01  2.5014894238E-01
                       4.1528632920E-01  2.6993100040E-01  5.0005484590E-01
                       4.1528632920E-01  2.6993100040E-01  7.4994515410E-01
                       2.7004840860E-01  5.8517817730E-01  1.2500000000E-01
                       2.7008225590E-01  5.8534144030E-01  3.7507783020E-01
                       2.7010248440E-01  5.8533634980E-01  6.2500000000E-01
                       2.7008225590E-01  5.8534144030E-01  8.7492216980E-01
                       7.2995159140E-01  4.1482182270E-01  1.2500000000E-01
                       7.2991774410E-01  4.1465855970E-01  3.7507783020E-01
                       7.2989751560E-01  4.1466365020E-01  6.2500000000E-01
                       7.2991774410E-01  4.1465855970E-01  8.7492216980E-01
                       2.5446159180E-01  8.9276336190E-01 -3.1643550331E-04
                       2.5446159180E-01  8.9276336190E-01  2.5031643550E-01
                       2.5571542770E-01  8.9317450770E-01  5.0005659290E-01
                       2.5571542770E-01  8.9317450770E-01  7.4994340710E-01
                       7.4553840820E-01  1.0723663810E-01 -3.1643550331E-04
                       7.4553840820E-01  1.0723663810E-01  2.5031643550E-01
                       7.4428457230E-01  1.0682549230E-01  5.0005659290E-01
                       7.4428457230E-01  1.0682549230E-01  7.4994340710E-01
                       1.0773134640E-01  2.5687632930E-01  1.2500000000E-01
                       1.0769903260E-01  2.5694112110E-01  3.7506771280E-01
                       1.0760380700E-01  2.5688604040E-01  6.2500000000E-01
                       1.0769903260E-01  2.5694112110E-01  8.7493228720E-01
                       8.9226865360E-01  7.4312367070E-01  1.2500000000E-01
                       8.9230096740E-01  7.4305887890E-01  3.7506771280E-01
                       8.9239619300E-01  7.4311395960E-01  6.2500000000E-01
                       8.9230096740E-01  7.4305887890E-01  8.7493228720E-01
            znucl       63.00000   38.00000    3.00000   13.00000    7.00000    8.00000
 
================================================================================
 
 chkinp: Checking input parameters for consistency.
 
================================================================================
== DATASET  1 ==================================================================
-   mpi_nproc: 40, omp_nthreads: -1 (-1 if OMP is not activated)
 

--- !DatasetInfo
iteration_state: {dtset: 1, }
dimensions: {natom: 72, nkpt: 2, mband: 204, nsppol: 2, nspinor: 1, nspden: 2, mpw: 1624, }
cutoff_energies: {ecut:  15.0, pawecutdg:  30.0, }
electrons: {nelect:   3.59000000E+02, charge:   0.00000000E+00, occopt:   2.00000000E+00, tsmear:   1.00000000E-02, }
meta: {optdriver: 0, ionmov: 0, optcell: 0, iscf: 17, paral_kgb: 1, }
...

 Real(R)+Recip(G) space primitive vectors, cartesian coordinates (Bohr,Bohr^-1):
 R(1)= 15.1390449  0.0381571  0.0000000  G(1)=  0.0660548 -0.0001665  0.0000000
 R(2)=  0.0381571 15.1389269  0.0000000  G(2)= -0.0001665  0.0660553  0.0000000
 R(3)=  0.0000000  0.0000000 24.2860350  G(3)=  0.0000000  0.0000000  0.0411759
 Unit cell volume ucvol=  5.5660541E+03 bohr^3
 Angles (23,13,12)=  9.00000000E+01  9.00000000E+01  8.97111780E+01 degrees
 
 Coarse grid specifications (used for wave-functions):
 
 getcut: wavevector=  0.0000  0.0000  0.0000  ngfft=  54  60  90
         ecut(hartree)=     15.000   => boxcut(ratio)=   2.04592
 
 Fine grid specifications (used for densities):
 
 getcut: wavevector=  0.0000  0.0000  0.0000  ngfft=  80  80 120
         ecut(hartree)=     30.000   => boxcut(ratio)=   2.00401
 
--- Pseudopotential description ------------------------------------------------
- pspini: atom type   1  psp file is /home/ucl/modl/jbouq/psps_paw_pbe/Eu.GGA_PBE-JTH.xml
- pspatm: opening atomic psp file    /home/ucl/modl/jbouq/psps_paw_pbe/Eu.GGA_PBE-JTH.xml
- pspatm : Reading pseudopotential header in XML form from /home/ucl/modl/jbouq/psps_paw_pbe/Eu.GGA_PBE-JTH.xml
 Pseudopotential format is: paw10
 basis_size (lnmax)=  8 (lmn_size= 32), orbitals=   0   0   1   1   2   2   3   3
 Spheres core radius: rc_sph= 2.52170005
 1 radial meshes are used:
  - mesh 1: r(i)=AA*[exp(BB*(i-1))-1], size=1500 , AA= 0.14034E-03 BB= 0.88415E-02
 Shapefunction is SIN type: shapef(r)=[sin(pi*r/rshp)/(pi*r/rshp)]**2
 Radius for shape functions =  2.30830346
 mmax= 1500
 Radial grid used for partial waves is grid 1
 Radial grid used for projectors is grid 1
 Radial grid used for (t)core density is grid 1
 Radial grid used for Vloc is grid 1
 Radial grid used for pseudo valence density is grid 1
 Mesh size for Vloc has been set to 1343 to avoid numerical noise.
 Compensation charge density is not taken into account in XC energy/potential
 pspatm: atomic psp has been read  and splines computed
 
- pspini: atom type   2  psp file is /home/ucl/modl/jbouq/psps_paw_pbe/Sr.GGA_PBE-JTH.xml
- pspatm: opening atomic psp file    /home/ucl/modl/jbouq/psps_paw_pbe/Sr.GGA_PBE-JTH.xml
- pspatm : Reading pseudopotential header in XML form from /home/ucl/modl/jbouq/psps_paw_pbe/Sr.GGA_PBE-JTH.xml
 Pseudopotential format is: paw10
 basis_size (lnmax)=  6 (lmn_size= 18), orbitals=   0   0   1   1   2   2
 Spheres core radius: rc_sph= 2.20669967
 1 radial meshes are used:
  - mesh 1: r(i)=AA*[exp(BB*(i-1))-1], size=1500 , AA= 0.22443E-03 BB= 0.85283E-02
 Shapefunction is SIN type: shapef(r)=[sin(pi*r/rshp)/(pi*r/rshp)]**2
 Radius for shape functions =  1.81361893
 mmax= 1500
 Radial grid used for partial waves is grid 1
 Radial grid used for projectors is grid 1
 Radial grid used for (t)core density is grid 1
 Radial grid used for Vloc is grid 1
 Radial grid used for pseudo valence density is grid 1
 Mesh size for Vloc has been set to 1337 to avoid numerical noise.
 Compensation charge density is not taken into account in XC energy/potential
 pspatm: atomic psp has been read  and splines computed
 
- pspini: atom type   3  psp file is /home/ucl/modl/jbouq/psps_paw_pbe/Li.GGA_PBE-JTH.xml
- pspatm: opening atomic psp file    /home/ucl/modl/jbouq/psps_paw_pbe/Li.GGA_PBE-JTH.xml
- pspatm : Reading pseudopotential header in XML form from /home/ucl/modl/jbouq/psps_paw_pbe/Li.GGA_PBE-JTH.xml
 Pseudopotential format is: paw10
 basis_size (lnmax)=  5 (lmn_size=  9), orbitals=   0   0   0   1   1
 Spheres core radius: rc_sph= 1.60264751
 1 radial meshes are used:
  - mesh 1: r(i)=AA*[exp(BB*(i-1))-1], size=2001 , AA= 0.17851E-02 BB= 0.53552E-02
 Shapefunction is BESSEL type: shapef(r,l)=aa(1,l)*jl(q(1,l)*r)+aa(2,l)*jl(q(2,l)*r)
 Radius for shape functions =  1.30023672
 mmax= 2001
 Radial grid used for partial waves is grid 1
 Radial grid used for projectors is grid 1
 Radial grid used for (t)core density is grid 1
 Radial grid used for Vloc is grid 1
 Radial grid used for pseudo valence density is grid 1
 Mesh size for Vloc has been set to 1742 to avoid numerical noise.
 Compensation charge density is not taken into account in XC energy/potential
 pspatm: atomic psp has been read  and splines computed
 
- pspini: atom type   4  psp file is /home/ucl/modl/jbouq/psps_paw_pbe/Al.GGA_PBE-JTH.xml
- pspatm: opening atomic psp file    /home/ucl/modl/jbouq/psps_paw_pbe/Al.GGA_PBE-JTH.xml
- pspatm : Reading pseudopotential header in XML form from /home/ucl/modl/jbouq/psps_paw_pbe/Al.GGA_PBE-JTH.xml
 Pseudopotential format is: paw10
 basis_size (lnmax)=  4 (lmn_size=  8), orbitals=   0   0   1   1
 Spheres core radius: rc_sph= 1.90363307
 1 radial meshes are used:
  - mesh 1: r(i)=AA*[exp(BB*(i-1))-1], size=2001 , AA= 0.46377E-03 BB= 0.60291E-02
 Shapefunction is SIN type: shapef(r)=[sin(pi*r/rshp)/(pi*r/rshp)]**2
 Radius for shape functions =  1.60786206
 mmax= 2001
 Radial grid used for partial waves is grid 1
 Radial grid used for projectors is grid 1
 Radial grid used for (t)core density is grid 1
 Radial grid used for Vloc is grid 1
 Radial grid used for pseudo valence density is grid 1
 Mesh size for Vloc has been set to 1771 to avoid numerical noise.
 Compensation charge density is not taken into account in XC energy/potential
 pspatm: atomic psp has been read  and splines computed
 
- pspini: atom type   5  psp file is /home/ucl/modl/jbouq/psps_paw_pbe/N.GGA_PBE-JTH.xml
- pspatm: opening atomic psp file    /home/ucl/modl/jbouq/psps_paw_pbe/N.GGA_PBE-JTH.xml
- pspatm : Reading pseudopotential header in XML form from /home/ucl/modl/jbouq/psps_paw_pbe/N.GGA_PBE-JTH.xml
 Pseudopotential format is: paw10
 basis_size (lnmax)=  4 (lmn_size=  8), orbitals=   0   0   1   1
 Spheres core radius: rc_sph= 1.20000000
 1 radial meshes are used:
  - mesh 1: r(i)=AA*[exp(BB*(i-1))-1], size= 787 , AA= 0.19344E-02 BB= 0.13541E-01
 Shapefunction is SIN type: shapef(r)=[sin(pi*r/rshp)/(pi*r/rshp)]**2
 Radius for shape functions =  1.00599851
 mmax=  787
 Radial grid used for partial waves is grid 1
 Radial grid used for projectors is grid 1
 Radial grid used for (t)core density is grid 1
 Radial grid used for Vloc is grid 1
 Radial grid used for pseudo valence density is grid 1
 Mesh size for Vloc has been set to  683 to avoid numerical noise.
 Compensation charge density is not taken into account in XC energy/potential
 pspatm: atomic psp has been read  and splines computed
 
- pspini: atom type   6  psp file is /home/ucl/modl/jbouq/psps_paw_pbe/O.GGA_PBE-JTH.xml
- pspatm: opening atomic psp file    /home/ucl/modl/jbouq/psps_paw_pbe/O.GGA_PBE-JTH.xml
- pspatm : Reading pseudopotential header in XML form from /home/ucl/modl/jbouq/psps_paw_pbe/O.GGA_PBE-JTH.xml
 Pseudopotential format is: paw10
 basis_size (lnmax)=  4 (lmn_size=  8), orbitals=   0   0   1   1
 Spheres core radius: rc_sph= 1.41465230
 1 radial meshes are used:
  - mesh 1: r(i)=AA*[exp(BB*(i-1))-1], size=2001 , AA= 0.72565E-03 BB= 0.58052E-02
 Shapefunction is SIN type: shapef(r)=[sin(pi*r/rshp)/(pi*r/rshp)]**2
 Radius for shape functions =  1.20231231
 mmax= 2001
 Radial grid used for partial waves is grid 1
 Radial grid used for projectors is grid 1
 Radial grid used for (t)core density is grid 1
 Radial grid used for Vloc is grid 1
 Radial grid used for pseudo valence density is grid 1
 Mesh size for Vloc has been set to 1762 to avoid numerical noise.
 Compensation charge density is not taken into account in XC energy/potential
 pspatm: atomic psp has been read  and splines computed
 
   1.43215553E+05                                ecore*ucvol(ha*bohr**3)
--------------------------------------------------------------------------------
 
_setup2: Arith. and geom. avg. npw (full set) are    1622.500    1622.499
 
 
 ******************************************
 DFT+U Method used: FLL
 ******************************************
 
================================================================================

--- !BeginCycle
iteration_state: {dtset: 1, }
solver: {iscf: 17, nstep: 100, nline: 4, wfoptalg: 114, }
tolerances: {toldfe: 1.00E-08, }
...
 
     iter   Etot(hartree)      deltaE(h)  residm     nres2
 ETOT  1  -889.47260117919    -8.895E+02 7.180E-04 1.119E+01
 ETOT  2  -889.67341164047    -2.008E-01 3.605E-05 2.853E+01
 ETOT  3  -889.49780059037     1.756E-01 1.093E-03 2.089E+00
 ETOT  4  -889.50394555747    -6.145E-03 8.185E-05 4.526E-01
 ETOT  5  -889.50665217900    -2.707E-03 9.461E-05 8.438E-02
 ETOT  6  -889.50717942946    -5.273E-04 8.688E-05 1.340E-02
 ETOT  7  -889.50720480340    -2.537E-05 8.294E-06 4.806E-03
 ETOT  8  -889.50724493984    -4.014E-05 1.870E-06 2.156E-03
 ETOT  9  -889.50725865534    -1.372E-05 1.579E-06 8.948E-04
 ETOT 10  -889.50726845508    -9.800E-06 1.412E-06 2.234E-04
 ETOT 11  -889.50727781208    -9.357E-06 9.772E-07 6.738E-05
 ETOT 12  -889.50727928201    -1.470E-06 2.529E-07 3.531E-05
 ETOT 13  -889.50728320662    -3.925E-06 3.170E-07 9.883E-06
 ETOT 14  -889.50728418263    -9.760E-07 1.450E-07 3.628E-06
 ETOT 15  -889.50728471717    -5.345E-07 1.338E-07 1.156E-06
 ETOT 16  -889.50728479837    -8.119E-08 7.526E-08 5.525E-07
 ETOT 17  -889.50728481952    -2.115E-08 5.186E-08 2.114E-07
 ETOT 18  -889.50728483226    -1.274E-08 4.049E-08 5.761E-08
 ETOT 19  -889.50728483803    -5.764E-09 2.832E-08 2.240E-08
 ETOT 20  -889.50728484064    -2.613E-09 2.069E-08 1.037E-08
 
 At SCF step   20, etot is converged : 
  for the second time, diff in etot=  2.613E-09 < toldfe=  1.000E-08
 
 Cartesian components of stress tensor (hartree/bohr^3)
  sigma(1 1)=  4.41067133E-04  sigma(3 2)=  0.00000000E+00
  sigma(2 2)=  4.53229911E-04  sigma(3 1)=  0.00000000E+00
  sigma(3 3)=  4.78216671E-04  sigma(2 1)=  4.75793582E-06
 

--- !ResultsGS
iteration_state: {dtset: 1, }
comment   : Summary of ground state results
lattice_vectors:
- [ 15.1390449,   0.0381571,   0.0000000, ]
- [  0.0381571,  15.1389269,   0.0000000, ]
- [  0.0000000,   0.0000000,  24.2860350, ]
lattice_lengths: [  15.13909,   15.13897,   24.28603, ]
lattice_angles: [ 90.000,  90.000,  89.711, ] # degrees, (23, 13, 12)
lattice_volume:   5.5660541E+03
convergence: {deltae: -2.613E-09, res2:  1.037E-08, residm:  2.069E-08, diffor: null, }
etotal    :  -8.89507285E+02
entropy   :   0.00000000E+00
fermie    :   2.82018890E-01
cartesian_stress_tensor: # hartree/bohr^3
- [  4.41067133E-04,   4.75793582E-06,   0.00000000E+00, ]
- [  4.75793582E-06,   4.53229911E-04,   0.00000000E+00, ]
- [  0.00000000E+00,   0.00000000E+00,   4.78216671E-04, ]
pressure_GPa:  -1.3460E+01
xred      :
- [  5.0000E-01,  -2.1684E-19,   1.2500E-01, Eu]
- [  5.0000E-01,  -2.1684E-19,   3.7513E-01, Sr]
- [  5.0000E-01,  -2.1684E-19,   6.2500E-01, Sr]
- [  5.0000E-01,  -2.1684E-19,   8.7487E-01, Sr]
- [ -5.5511E-17,   5.0000E-01,  -1.5730E-05, Sr]
- [ -5.5511E-17,   5.0000E-01,   2.5002E-01, Sr]
- [ -5.5511E-17,   5.0000E-01,   5.0003E-01, Sr]
- [ -5.5511E-17,   5.0000E-01,   7.4997E-01, Sr]
- [  1.2546E-01,   8.2283E-01,   1.2500E-01, Li]
- [  1.2557E-01,   8.2274E-01,   3.7523E-01, Li]
- [  1.2587E-01,   8.2291E-01,   6.2500E-01, Li]
- [  1.2557E-01,   8.2274E-01,   8.7477E-01, Li]
- [  8.7454E-01,   1.7717E-01,   1.2500E-01, Li]
- [  8.7443E-01,   1.7726E-01,   3.7523E-01, Li]
- [  8.7413E-01,   1.7709E-01,   6.2500E-01, Li]
- [  8.7443E-01,   1.7726E-01,   8.7477E-01, Li]
- [  1.7687E-01,   1.2631E-01,  -3.2528E-05, Li]
- [  1.7687E-01,   1.2631E-01,   2.5003E-01, Li]
- [  1.7716E-01,   1.2640E-01,   5.0004E-01, Li]
- [  1.7716E-01,   1.2640E-01,   7.4996E-01, Li]
- [  8.2313E-01,   8.7369E-01,  -3.2528E-05, Li]
- [  8.2313E-01,   8.7369E-01,   2.5003E-01, Li]
- [  8.2284E-01,   8.7360E-01,   5.0004E-01, Li]
- [  8.2284E-01,   8.7360E-01,   7.4996E-01, Li]
- [  3.5283E-01,   6.8439E-01,  -2.2091E-06, Al]
- [  3.5283E-01,   6.8439E-01,   2.5000E-01, Al]
- [  3.5309E-01,   6.8443E-01,   5.0002E-01, Al]
- [  3.5309E-01,   6.8443E-01,   7.4998E-01, Al]
- [  6.4717E-01,   3.1561E-01,  -2.2091E-06, Al]
- [  6.4717E-01,   3.1561E-01,   2.5000E-01, Al]
- [  6.4691E-01,   3.1557E-01,   5.0002E-01, Al]
- [  6.4691E-01,   3.1557E-01,   7.4998E-01, Al]
- [  3.1610E-01,   3.5324E-01,   1.2500E-01, Al]
- [  3.1597E-01,   3.5352E-01,   3.7514E-01, Al]
- [  3.1596E-01,   3.5346E-01,   6.2500E-01, Al]
- [  3.1597E-01,   3.5352E-01,   8.7486E-01, Al]
- [  6.8390E-01,   6.4676E-01,   1.2500E-01, Al]
- [  6.8403E-01,   6.4648E-01,   3.7514E-01, Al]
- [  6.8404E-01,   6.4654E-01,   6.2500E-01, Al]
- [  6.8403E-01,   6.4648E-01,   8.7486E-01, Al]
- [  5.8456E-01,   7.2980E-01,  -1.4894E-04,  N]
- [  5.8456E-01,   7.2980E-01,   2.5015E-01,  N]
- [  5.8471E-01,   7.3007E-01,   5.0005E-01,  N]
- [  5.8471E-01,   7.3007E-01,   7.4995E-01,  N]
- [  4.1544E-01,   2.7020E-01,  -1.4894E-04,  N]
- [  4.1544E-01,   2.7020E-01,   2.5015E-01,  N]
- [  4.1529E-01,   2.6993E-01,   5.0005E-01,  N]
- [  4.1529E-01,   2.6993E-01,   7.4995E-01,  N]
- [  2.7005E-01,   5.8518E-01,   1.2500E-01,  N]
- [  2.7008E-01,   5.8534E-01,   3.7508E-01,  N]
- [  2.7010E-01,   5.8534E-01,   6.2500E-01,  N]
- [  2.7008E-01,   5.8534E-01,   8.7492E-01,  N]
- [  7.2995E-01,   4.1482E-01,   1.2500E-01,  N]
- [  7.2992E-01,   4.1466E-01,   3.7508E-01,  N]
- [  7.2990E-01,   4.1466E-01,   6.2500E-01,  N]
- [  7.2992E-01,   4.1466E-01,   8.7492E-01,  N]
- [  2.5446E-01,   8.9276E-01,  -3.1644E-04,  O]
- [  2.5446E-01,   8.9276E-01,   2.5032E-01,  O]
- [  2.5572E-01,   8.9317E-01,   5.0006E-01,  O]
- [  2.5572E-01,   8.9317E-01,   7.4994E-01,  O]
- [  7.4554E-01,   1.0724E-01,  -3.1644E-04,  O]
- [  7.4554E-01,   1.0724E-01,   2.5032E-01,  O]
- [  7.4428E-01,   1.0683E-01,   5.0006E-01,  O]
- [  7.4428E-01,   1.0683E-01,   7.4994E-01,  O]
- [  1.0773E-01,   2.5688E-01,   1.2500E-01,  O]
- [  1.0770E-01,   2.5694E-01,   3.7507E-01,  O]
- [  1.0760E-01,   2.5689E-01,   6.2500E-01,  O]
- [  1.0770E-01,   2.5694E-01,   8.7493E-01,  O]
- [  8.9227E-01,   7.4312E-01,   1.2500E-01,  O]
- [  8.9230E-01,   7.4306E-01,   3.7507E-01,  O]
- [  8.9240E-01,   7.4311E-01,   6.2500E-01,  O]
- [  8.9230E-01,   7.4306E-01,   8.7493E-01,  O]
cartesian_forces: # hartree/bohr
- [  2.10817089E-20,   5.45865677E-21,   0.00000000E+00, ]
- [  2.10817089E-20,   5.45865677E-21,  -1.15244473E-03, ]
- [  2.10817089E-20,   5.45865677E-21,   0.00000000E+00, ]
- [  2.10817089E-20,   5.45865677E-21,   1.15244473E-03, ]
- [  2.10817089E-20,   5.45865677E-21,  -5.67975916E-04, ]
- [  2.10817089E-20,   5.45865677E-21,   5.67975916E-04, ]
- [  2.10817089E-20,   5.45865677E-21,   1.15924101E-03, ]
- [  2.10817089E-20,   5.45865677E-21,  -1.15924101E-03, ]
- [ -1.76730929E-04,  -3.84926579E-04,   0.00000000E+00, ]
- [  9.98357345E-05,   2.09619648E-04,   1.12749008E-03, ]
- [  1.87901465E-04,   1.99534778E-04,   0.00000000E+00, ]
- [  9.98357345E-05,   2.09619648E-04,  -1.12749008E-03, ]
- [  1.76730929E-04,   3.84926579E-04,   0.00000000E+00, ]
- [ -9.98357345E-05,  -2.09619648E-04,   1.12749008E-03, ]
- [ -1.87901465E-04,  -1.99534778E-04,   0.00000000E+00, ]
- [ -9.98357345E-05,  -2.09619648E-04,  -1.12749008E-03, ]
- [ -2.31994281E-04,   6.15467373E-04,  -7.85667604E-04, ]
- [ -2.31994281E-04,   6.15467373E-04,   7.85667604E-04, ]
- [  4.60812795E-04,  -2.31589608E-04,   3.46799242E-04, ]
- [  4.60812795E-04,  -2.31589608E-04,  -3.46799242E-04, ]
- [  2.31994281E-04,  -6.15467373E-04,  -7.85667604E-04, ]
- [  2.31994281E-04,  -6.15467373E-04,   7.85667604E-04, ]
- [ -4.60812795E-04,   2.31589608E-04,   3.46799242E-04, ]
- [ -4.60812795E-04,   2.31589608E-04,  -3.46799242E-04, ]
- [ -5.01028246E-04,  -7.80489151E-04,  -3.97848397E-04, ]
- [ -5.01028246E-04,  -7.80489151E-04,   3.97848397E-04, ]
- [  9.51832420E-04,   1.61502855E-03,   1.34426516E-03, ]
- [  9.51832420E-04,   1.61502855E-03,  -1.34426516E-03, ]
- [  5.01028246E-04,   7.80489151E-04,  -3.97848397E-04, ]
- [  5.01028246E-04,   7.80489151E-04,   3.97848397E-04, ]
- [ -9.51832420E-04,  -1.61502855E-03,   1.34426516E-03, ]
- [ -9.51832420E-04,  -1.61502855E-03,  -1.34426516E-03, ]
- [  3.08868899E-04,   1.89985480E-04,   0.00000000E+00, ]
- [ -4.14612554E-05,  -1.68470912E-03,   3.65388132E-03, ]
- [  6.46401442E-04,  -3.92564061E-04,   0.00000000E+00, ]
- [ -4.14612554E-05,  -1.68470912E-03,  -3.65388132E-03, ]
- [ -3.08868899E-04,  -1.89985480E-04,   0.00000000E+00, ]
- [  4.14612554E-05,   1.68470912E-03,   3.65388132E-03, ]
- [ -6.46401442E-04,   3.92564061E-04,   0.00000000E+00, ]
- [  4.14612554E-05,   1.68470912E-03,  -3.65388132E-03, ]
- [ -1.31909404E-03,   4.15132699E-03,   5.37440542E-03, ]
- [ -1.31909404E-03,   4.15132699E-03,  -5.37440542E-03, ]
- [  5.68720510E-04,  -2.17297387E-03,  -5.10839496E-04, ]
- [  5.68720510E-04,  -2.17297387E-03,   5.10839496E-04, ]
- [  1.31909404E-03,  -4.15132699E-03,   5.37440542E-03, ]
- [  1.31909404E-03,  -4.15132699E-03,  -5.37440542E-03, ]
- [ -5.68720510E-04,   2.17297387E-03,  -5.10839496E-04, ]
- [ -5.68720510E-04,   2.17297387E-03,   5.10839496E-04, ]
- [  4.26424417E-05,  -6.30253604E-04,   0.00000000E+00, ]
- [  6.13240848E-04,  -5.70526018E-04,  -2.78625955E-03, ]
- [ -2.68730401E-04,  -3.15291423E-04,   0.00000000E+00, ]
- [  6.13240848E-04,  -5.70526018E-04,   2.78625955E-03, ]
- [ -4.26424417E-05,   6.30253604E-04,   0.00000000E+00, ]
- [ -6.13240848E-04,   5.70526018E-04,  -2.78625955E-03, ]
- [  2.68730401E-04,   3.15291423E-04,   0.00000000E+00, ]
- [ -6.13240848E-04,   5.70526018E-04,   2.78625955E-03, ]
- [  2.52079730E-03,   2.01224628E-03,   6.17100608E-03, ]
- [  2.52079730E-03,   2.01224628E-03,  -6.17100608E-03, ]
- [ -1.86900601E-03,  -1.12427914E-03,  -4.37794228E-04, ]
- [ -1.86900601E-03,  -1.12427914E-03,   4.37794228E-04, ]
- [ -2.52079730E-03,  -2.01224628E-03,   6.17100608E-03, ]
- [ -2.52079730E-03,  -2.01224628E-03,  -6.17100608E-03, ]
- [  1.86900601E-03,   1.12427914E-03,  -4.37794228E-04, ]
- [  1.86900601E-03,   1.12427914E-03,   4.37794228E-04, ]
- [ -3.77299577E-04,  -5.88824765E-04,   0.00000000E+00, ]
- [ -4.81174735E-04,   3.65610822E-05,  -1.43902444E-03, ]
- [ -5.14077835E-04,   2.34315433E-04,   0.00000000E+00, ]
- [ -4.81174735E-04,   3.65610822E-05,   1.43902444E-03, ]
- [  3.77299577E-04,   5.88824765E-04,   0.00000000E+00, ]
- [  4.81174735E-04,  -3.65610822E-05,  -1.43902444E-03, ]
- [  5.14077835E-04,  -2.34315433E-04,   0.00000000E+00, ]
- [  4.81174735E-04,  -3.65610822E-05,   1.43902444E-03, ]
force_length_stats: {min:   2.17769462E-20, max:   6.96310780E-03, mean:   2.02648170E-03, }
...

 Integrated electronic and magnetization densities in atomic spheres:
 ---------------------------------------------------------------------
 Radius=ratsph(iatom), smearing ratsm=  0.0000. Diff(up-dn)=approximate z local magnetic moment.
 Atom    Radius    up_density   dn_density  Total(up+dn)  Diff(up-dn)
    1   2.52170    10.429196     4.019508     14.448704     6.409688
    2   2.20670     3.696773     3.655540      7.352312     0.041233
    3   2.20670     3.674409     3.663698      7.338107     0.010710
    4   2.20670     3.696773     3.655540      7.352312     0.041233
    5   2.20670     3.669011     3.666870      7.335881     0.002141
    6   2.20670     3.669011     3.666870      7.335881     0.002141
    7   2.20670     3.668034     3.667112      7.335146     0.000921
    8   2.20670     3.668034     3.667112      7.335146     0.000921
    9   1.60265     1.054412     1.054182      2.108594     0.000230
   10   1.60265     1.053942     1.054133      2.108075    -0.000191
   11   1.60265     1.054513     1.054493      2.109005     0.000020
   12   1.60265     1.053942     1.054133      2.108075    -0.000191
   13   1.60265     1.054412     1.054182      2.108594     0.000230
   14   1.60265     1.053942     1.054133      2.108075    -0.000191
   15   1.60265     1.054513     1.054493      2.109005     0.000020
   16   1.60265     1.053942     1.054133      2.108075    -0.000191
   17   1.60265     1.054736     1.054538      2.109274     0.000197
   18   1.60265     1.054736     1.054538      2.109274     0.000197
   19   1.60265     1.054536     1.054521      2.109057     0.000016
   20   1.60265     1.054536     1.054521      2.109057     0.000016
   21   1.60265     1.054736     1.054538      2.109274     0.000197
   22   1.60265     1.054736     1.054538      2.109274     0.000197
   23   1.60265     1.054536     1.054521      2.109057     0.000016
   24   1.60265     1.054536     1.054521      2.109057     0.000016
   25   1.90363     0.450094     0.449136      0.899230     0.000958
   26   1.90363     0.450094     0.449136      0.899230     0.000958
   27   1.90363     0.448185     0.447983      0.896168     0.000202
   28   1.90363     0.448185     0.447983      0.896168     0.000202
   29   1.90363     0.450094     0.449136      0.899230     0.000958
   30   1.90363     0.450094     0.449136      0.899230     0.000958
   31   1.90363     0.448185     0.447983      0.896168     0.000202
   32   1.90363     0.448185     0.447983      0.896168     0.000202
   33   1.90363     0.452442     0.450203      0.902645     0.002240
   34   1.90363     0.450153     0.449644      0.899797     0.000509
   35   1.90363     0.449925     0.449286      0.899211     0.000639
   36   1.90363     0.450153     0.449644      0.899797     0.000509
   37   1.90363     0.452442     0.450203      0.902645     0.002240
   38   1.90363     0.450153     0.449644      0.899797     0.000509
   39   1.90363     0.449925     0.449286      0.899211     0.000639
   40   1.90363     0.450153     0.449644      0.899797     0.000509
   41   1.20000     1.268060     1.280115      2.548175    -0.012055
   42   1.20000     1.268060     1.280115      2.548175    -0.012055
   43   1.20000     1.277830     1.277865      2.555695    -0.000035
   44   1.20000     1.277830     1.277865      2.555695    -0.000035
   45   1.20000     1.268060     1.280115      2.548175    -0.012055
   46   1.20000     1.268060     1.280115      2.548175    -0.012055
   47   1.20000     1.277830     1.277865      2.555695    -0.000035
   48   1.20000     1.277830     1.277865      2.555695    -0.000035
   49   1.20000     1.277370     1.276364      2.553734     0.001006
   50   1.20000     1.275391     1.276941      2.552333    -0.001550
   51   1.20000     1.276308     1.276299      2.552607     0.000009
   52   1.20000     1.275391     1.276941      2.552333    -0.001550
   53   1.20000     1.277370     1.276364      2.553734     0.001006
   54   1.20000     1.275391     1.276941      2.552333    -0.001550
   55   1.20000     1.276308     1.276299      2.552607     0.000009
   56   1.20000     1.275391     1.276941      2.552333    -0.001550
   57   1.41465     2.279112     2.291305      4.570416    -0.012193
   58   1.41465     2.279112     2.291305      4.570416    -0.012193
   59   1.41465     2.296468     2.296633      4.593100    -0.000165
   60   1.41465     2.296468     2.296633      4.593100    -0.000165
   61   1.41465     2.279112     2.291305      4.570416    -0.012193
   62   1.41465     2.279112     2.291305      4.570416    -0.012193
   63   1.41465     2.296468     2.296633      4.593100    -0.000165
   64   1.41465     2.296468     2.296633      4.593100    -0.000165
   65   1.41465     2.289127     2.287995      4.577122     0.001133
   66   1.41465     2.288195     2.288086      4.576281     0.000110
   67   1.41465     2.287578     2.287448      4.575026     0.000129
   68   1.41465     2.288195     2.288086      4.576281     0.000110
   69   1.41465     2.289127     2.287995      4.577122     0.001133
   70   1.41465     2.288195     2.288086      4.576281     0.000110
   71   1.41465     2.287578     2.287448      4.575026     0.000129
   72   1.41465     2.288195     2.288086      4.576281     0.000110
 ---------------------------------------------------------------------
  Sum:            117.241400   110.818386    228.059786     6.423014
 Total magnetization (from the atomic spheres):             6.423014
 Total magnetization (exact up - dn):                       6.999981
 
 PAW TEST:
 ==== Compensation charge inside spheres ============
 The following values must be close to each other ...
 Compensation charge over spherical meshes =     28.264604470057478
 Compensation charge over fine fft grid    =     28.265776355859160
 
 ==== Results concerning PAW augmentation regions ====
 
 Total pseudopotential strength Dij (hartree):
 Atom #  1 - Spin component 1
  -0.67129  -0.08780   0.00000   0.00000   0.00000   0.00000   0.00000   0.00000  -0.00001   0.00000   0.00003   0.00000 ...
  -0.08780  -0.09100   0.00000   0.00000   0.00000   0.00000   0.00000   0.00000   0.00000   0.00000   0.00016   0.00000 ...
   0.00000   0.00000  -0.75180   0.00000   0.00008   0.21468   0.00000  -0.00023   0.00000   0.00000   0.00000   0.00000 ...
   0.00000   0.00000   0.00000  -0.75046   0.00000   0.00000   0.21204   0.00000   0.00000   0.00000   0.00000   0.00000 ...
   0.00000   0.00000   0.00008   0.00000  -0.75202  -0.00023   0.00000   0.21500   0.00000   0.00000   0.00000   0.00000 ...
   0.00000   0.00000   0.21468   0.00000  -0.00023   0.81680   0.00000   0.00012   0.00000   0.00000   0.00000   0.00000 ...
   0.00000   0.00000   0.00000   0.21204   0.00000   0.00000   0.81918   0.00000   0.00000   0.00000   0.00000   0.00000 ...
   0.00000   0.00000  -0.00023   0.00000   0.21500   0.00012   0.00000   0.81640   0.00000   0.00000   0.00000   0.00000 ...
  -0.00001   0.00000   0.00000   0.00000   0.00000   0.00000   0.00000   0.00000  -0.19528   0.00000  -0.00001   0.00000 ...
   0.00000   0.00000   0.00000   0.00000   0.00000   0.00000   0.00000   0.00000   0.00000  -0.19534   0.00000  -0.00000 ...
   0.00003   0.00016   0.00000   0.00000   0.00000   0.00000   0.00000   0.00000  -0.00001   0.00000  -0.19461   0.00000 ...
   0.00000   0.00000   0.00000   0.00000   0.00000   0.00000   0.00000   0.00000   0.00000  -0.00000   0.00000  -0.19536 ...
   ...  only 12  components have been written...
 Atom #  1 - Spin component 2
  -0.60203  -0.08008   0.00000   0.00000   0.00000   0.00000   0.00000   0.00000   0.00001   0.00000  -0.00031   0.00000 ...
  -0.08008  -0.09033   0.00000   0.00000   0.00000   0.00000   0.00000   0.00000   0.00001   0.00000   0.00004   0.00000 ...
   0.00000   0.00000  -0.69398   0.00000   0.00016   0.15129   0.00000  -0.00034   0.00000   0.00000   0.00000   0.00000 ...
   0.00000   0.00000   0.00000  -0.69245   0.00000   0.00000   0.14682   0.00000   0.00000   0.00000   0.00000   0.00000 ...
   0.00000   0.00000   0.00016   0.00000  -0.69410  -0.00034   0.00000   0.15188   0.00000   0.00000   0.00000   0.00000 ...
   0.00000   0.00000   0.15129   0.00000  -0.00034   0.88033   0.00000   0.00020   0.00000   0.00000   0.00000   0.00000 ...
   0.00000   0.00000   0.00000   0.14682   0.00000   0.00000   0.88251   0.00000   0.00000   0.00000   0.00000   0.00000 ...
   0.00000   0.00000  -0.00034   0.00000   0.15188   0.00020   0.00000   0.88007   0.00000   0.00000   0.00000   0.00000 ...
   0.00001   0.00001   0.00000   0.00000   0.00000   0.00000   0.00000   0.00000  -0.18232   0.00000  -0.00002   0.00000 ...
   0.00000   0.00000   0.00000   0.00000   0.00000   0.00000   0.00000   0.00000   0.00000  -0.18331   0.00000   0.00002 ...
  -0.00031   0.00004   0.00000   0.00000   0.00000   0.00000   0.00000   0.00000  -0.00002   0.00000  -0.18125   0.00000 ...
   0.00000   0.00000   0.00000   0.00000   0.00000   0.00000   0.00000   0.00000   0.00000   0.00002   0.00000  -0.18329 ...
   ...  only 12  components have been written...
 Atom # 72 - Spin component 1
   0.61082  -1.74571   0.00029  -0.00001   0.00065  -0.00204   0.00010  -0.00461
  -1.74571   5.05064  -0.00078   0.00004  -0.00176   0.00554  -0.00028   0.01253
   0.00029  -0.00078  -0.29723  -0.00000  -0.00030   0.90418   0.00001   0.00157
  -0.00001   0.00004  -0.00000  -0.29697   0.00000   0.00001   0.90270  -0.00002
   0.00065  -0.00176  -0.00030   0.00000  -0.29768   0.00157  -0.00002   0.90649
  -0.00204   0.00554   0.90418   0.00001   0.00157   0.05033  -0.00007  -0.00795
   0.00010  -0.00028   0.00001   0.90270  -0.00002  -0.00007   0.05811   0.00012
  -0.00461   0.01253   0.00157  -0.00002   0.90649  -0.00795   0.00012   0.03879
 Atom # 72 - Spin component 2
   0.61081  -1.74569   0.00029  -0.00001   0.00065  -0.00205   0.00010  -0.00459
  -1.74569   5.05058  -0.00078   0.00004  -0.00175   0.00556  -0.00028   0.01250
   0.00029  -0.00078  -0.29723  -0.00000  -0.00030   0.90416   0.00001   0.00158
  -0.00001   0.00004  -0.00000  -0.29697   0.00001   0.00001   0.90271  -0.00003
   0.00065  -0.00175  -0.00030   0.00001  -0.29767   0.00158  -0.00003   0.90646
  -0.00205   0.00556   0.90416   0.00001   0.00158   0.05042  -0.00004  -0.00799
   0.00010  -0.00028   0.00001   0.90271  -0.00003  -0.00004   0.05806   0.00015
  -0.00459   0.01250   0.00158  -0.00003   0.90646  -0.00799   0.00015   0.03897
 
 
 Augmentation waves occupancies Rhoij:
 Atom #  1 - Spin component 1
   1.04764  -0.11220   0.00000   0.00000   0.00000   0.00000   0.00000   0.00000   0.00096   0.00000  -0.01808   0.00000 ...
  -0.11220   0.16954   0.00000   0.00000   0.00000   0.00000   0.00000   0.00000  -0.00438   0.00000   0.03080   0.00000 ...
   0.00000   0.00000   1.00792   0.00000   0.00032  -0.00903   0.00000  -0.00026   0.00000   0.00000   0.00000   0.00000 ...
   0.00000   0.00000   0.00000   1.00572   0.00000   0.00000  -0.00734   0.00000   0.00000   0.00000   0.00000   0.00000 ...
   0.00000   0.00000   0.00032   0.00000   1.00785  -0.00026   0.00000  -0.00873   0.00000   0.00000   0.00000   0.00000 ...
   0.00000   0.00000  -0.00903   0.00000  -0.00026   0.00546   0.00000   0.00001   0.00000   0.00000   0.00000   0.00000 ...
   0.00000   0.00000   0.00000  -0.00734   0.00000   0.00000   0.00509   0.00000   0.00000   0.00000   0.00000   0.00000 ...
   0.00000   0.00000  -0.00026   0.00000  -0.00873   0.00001   0.00000   0.00463   0.00000   0.00000   0.00000   0.00000 ...
   0.00096  -0.00438   0.00000   0.00000   0.00000   0.00000   0.00000   0.00000   0.05436   0.00000  -0.01181   0.00000 ...
   0.00000   0.00000   0.00000   0.00000   0.00000   0.00000   0.00000   0.00000   0.00000   0.08485   0.00000  -0.00389 ...
  -0.01808   0.03080   0.00000   0.00000   0.00000   0.00000   0.00000   0.00000  -0.01181   0.00000   0.65560   0.00000 ...
   0.00000   0.00000   0.00000   0.00000   0.00000   0.00000   0.00000   0.00000   0.00000  -0.00389   0.00000   0.07325 ...
   ...  only 12  components have been written...
 Atom #  1 - Spin component 2
   0.98803   0.02258   0.00000   0.00000   0.00000   0.00000   0.00000   0.00000  -0.00042   0.00000  -0.00944   0.00000 ...
   0.02258   0.12378   0.00000   0.00000   0.00000   0.00000   0.00000   0.00000  -0.00195   0.00000  -0.00129   0.00000 ...
   0.00000   0.00000   1.00032   0.00000   0.00047   0.01099   0.00000  -0.00032   0.00000   0.00000   0.00000   0.00000 ...
   0.00000   0.00000   0.00000   0.99917   0.00000   0.00000   0.01034   0.00000   0.00000   0.00000   0.00000   0.00000 ...
   0.00000   0.00000   0.00047   0.00000   1.00005  -0.00032   0.00000   0.01172   0.00000   0.00000   0.00000   0.00000 ...
   0.00000   0.00000   0.01099   0.00000  -0.00032   0.00451   0.00000   0.00002   0.00000   0.00000   0.00000   0.00000 ...
   0.00000   0.00000   0.00000   0.01034   0.00000   0.00000   0.00404   0.00000   0.00000   0.00000   0.00000   0.00000 ...
   0.00000   0.00000  -0.00032   0.00000   0.01172   0.00002   0.00000   0.00387   0.00000   0.00000   0.00000   0.00000 ...
  -0.00042  -0.00195   0.00000   0.00000   0.00000   0.00000   0.00000   0.00000   0.03580   0.00000   0.00012   0.00000 ...
   0.00000   0.00000   0.00000   0.00000   0.00000   0.00000   0.00000   0.00000   0.00000   0.06004   0.00000  -0.00191 ...
  -0.00944  -0.00129   0.00000   0.00000   0.00000   0.00000   0.00000   0.00000   0.00012   0.00000   0.01276   0.00000 ...
   0.00000   0.00000   0.00000   0.00000   0.00000   0.00000   0.00000   0.00000   0.00000  -0.00191   0.00000   0.05194 ...
   ...  only 12  components have been written...
 Atom # 72 - Spin component 1
   0.98021   0.01468  -0.00050  -0.00052  -0.00041  -0.00066  -0.00000  -0.00147
   0.01468   0.00039  -0.00187   0.00010  -0.00424  -0.00009   0.00000  -0.00016
  -0.00050  -0.00187   0.90937  -0.00006   0.00429   0.02010   0.00000   0.00131
  -0.00052   0.00010  -0.00006   0.92438   0.00038   0.00000   0.01974  -0.00001
  -0.00041  -0.00424   0.00429   0.00038   0.92833   0.00131  -0.00000   0.02251
  -0.00066  -0.00009   0.02010   0.00000   0.00131   0.00047   0.00000   0.00006
  -0.00000   0.00000   0.00000   0.01974  -0.00000   0.00000   0.00044  -0.00000
  -0.00147  -0.00016   0.00131  -0.00001   0.02251   0.00006  -0.00000   0.00058
 Atom # 72 - Spin component 2
   0.98015   0.01469  -0.00059  -0.00053  -0.00031  -0.00066   0.00000  -0.00147
   0.01469   0.00038  -0.00186   0.00010  -0.00427  -0.00009   0.00000  -0.00016
  -0.00059  -0.00186   0.90938  -0.00010   0.00435   0.02011   0.00001   0.00131
  -0.00053   0.00010  -0.00010   0.92462   0.00030   0.00000   0.01975  -0.00001
  -0.00031  -0.00427   0.00435   0.00030   0.92820   0.00131  -0.00001   0.02252
  -0.00066  -0.00009   0.02011   0.00000   0.00131   0.00047   0.00000   0.00006
   0.00000   0.00000   0.00001   0.01975  -0.00001   0.00000   0.00044  -0.00000
  -0.00147  -0.00016   0.00131  -0.00001   0.02252   0.00006  -0.00000   0.00059
 
 "PAW+U" part of augmentation waves occupancies Rhoij:
 Atom #  1 - L=3 ONLY - Spin component 1
   0.99212   0.00000   0.00045   0.00000   0.00595   0.00000   0.00030  -0.00071   0.00000   0.00017   0.00000   0.00229   0.00000   0.00005
   0.00000   0.60687   0.00000  -0.00178   0.00000  -0.40456   0.00000   0.00000   0.01145   0.00000  -0.00007   0.00000   0.01805   0.00000
   0.00045   0.00000   0.99201   0.00000  -0.00036   0.00000   0.00439   0.00020   0.00000  -0.00052   0.00000   0.00009   0.00000   0.00153
   0.00000  -0.00178   0.00000   1.00329   0.00000   0.00041   0.00000   0.00000  -0.00043   0.00000   0.00307   0.00000   0.00098   0.00000
   0.00595   0.00000  -0.00036   0.00000   0.98971   0.00000   0.00248   0.00227   0.00000   0.00007   0.00000  -0.00138   0.00000   0.00095
   0.00000  -0.40456   0.00000   0.00041   0.00000   0.53828   0.00000   0.00000   0.01809   0.00000   0.00133   0.00000   0.01431   0.00000
   0.00030   0.00000   0.00439   0.00000   0.00248   0.00000   0.99352   0.00003   0.00000   0.00154   0.00000   0.00093   0.00000  -0.00036
  -0.00071   0.00000   0.00020   0.00000   0.00227   0.00000   0.00003   0.00269   0.00000   0.00004   0.00000   0.00043   0.00000  -0.00014
   0.00000   0.01145   0.00000  -0.00043   0.00000   0.01809   0.00000   0.00000   0.00416   0.00000  -0.00041   0.00000   0.00200   0.00000
   0.00017   0.00000  -0.00052   0.00000   0.00007   0.00000   0.00154   0.00004   0.00000   0.00282   0.00000   0.00029   0.00000   0.00014
   0.00000  -0.00007   0.00000   0.00307   0.00000   0.00133   0.00000   0.00000  -0.00041   0.00000   0.00262   0.00000   0.00037   0.00000
   0.00229   0.00000   0.00009   0.00000  -0.00138   0.00000   0.00093   0.00043   0.00000   0.00029   0.00000   0.00283   0.00000   0.00010
   0.00000   0.01805   0.00000   0.00098   0.00000   0.01431   0.00000   0.00000   0.00200   0.00000   0.00037   0.00000   0.00457   0.00000
   0.00005   0.00000   0.00153   0.00000   0.00095   0.00000  -0.00036  -0.00014   0.00000   0.00014   0.00000   0.00010   0.00000   0.00245
 Atom #  1 - L=3 ONLY - Spin component 2
   0.01321   0.00000  -0.00002   0.00000   0.00254   0.00000  -0.00063   0.00517   0.00000   0.00001   0.00000   0.00099   0.00000  -0.00026
   0.00000   0.03215   0.00000  -0.00138   0.00000   0.02315   0.00000   0.00000   0.01156   0.00000  -0.00064   0.00000   0.00791   0.00000
  -0.00002   0.00000   0.01332   0.00000   0.00105   0.00000   0.00140   0.00001   0.00000   0.00517   0.00000   0.00048   0.00000   0.00049
   0.00000  -0.00138   0.00000   0.01268   0.00000   0.00212   0.00000   0.00000  -0.00064   0.00000   0.00516   0.00000   0.00078   0.00000
   0.00254   0.00000   0.00105   0.00000   0.01332   0.00000   0.00027   0.00101   0.00000   0.00048   0.00000   0.00518   0.00000   0.00015
   0.00000   0.02315   0.00000   0.00212   0.00000   0.03617   0.00000   0.00000   0.00791   0.00000   0.00084   0.00000   0.01301   0.00000
  -0.00063   0.00000   0.00140   0.00000   0.00027   0.00000   0.01173  -0.00026   0.00000   0.00047   0.00000   0.00015   0.00000   0.00463
   0.00517   0.00000   0.00001   0.00000   0.00101   0.00000  -0.00026   0.00203   0.00000   0.00001   0.00000   0.00039   0.00000  -0.00011
   0.00000   0.01156   0.00000  -0.00064   0.00000   0.00791   0.00000   0.00000   0.00420   0.00000  -0.00029   0.00000   0.00272   0.00000
   0.00001   0.00000   0.00517   0.00000   0.00048   0.00000   0.00047   0.00001   0.00000   0.00201   0.00000   0.00021   0.00000   0.00016
   0.00000  -0.00064   0.00000   0.00516   0.00000   0.00084   0.00000   0.00000  -0.00029   0.00000   0.00211   0.00000   0.00031   0.00000
   0.00099   0.00000   0.00048   0.00000   0.00518   0.00000   0.00015   0.00039   0.00000   0.00021   0.00000   0.00202   0.00000   0.00008
   0.00000   0.00791   0.00000   0.00078   0.00000   0.01301   0.00000   0.00000   0.00272   0.00000   0.00031   0.00000   0.00472   0.00000
  -0.00026   0.00000   0.00049   0.00000   0.00015   0.00000   0.00463  -0.00011   0.00000   0.00016   0.00000   0.00008   0.00000   0.00183
 
 ---------- DFT+U DATA --------------------------------------------------- 
 
 ====== For Atom     1, occupations for correlated orbitals. lpawu =   3
 
 Atom   1. Occ. for lpawu and for spin  1 =   6.02333
 Atom   1. Occ. for lpawu and for spin  2 =   0.02853
 => On atom   1,  local Mag. for lpawu is       -5.994803
 
 == Occupation matrix for correlated orbitals:
 
 Occupation matrix for spin  1
     0.99027    0.00000   -0.00002    0.00000   -0.00020    0.00000   -0.00028
     0.00000    0.57493    0.00000   -0.00224    0.00000   -0.45202    0.00000
    -0.00002    0.00000    0.98998    0.00000    0.00032    0.00000   -0.00024
     0.00000   -0.00224    0.00000    0.98869    0.00000   -0.00219    0.00000
    -0.00020    0.00000    0.00032    0.00000    0.99054    0.00000   -0.00029
     0.00000   -0.45202    0.00000   -0.00219    0.00000    0.49921    0.00000
    -0.00028    0.00000   -0.00024    0.00000   -0.00029    0.00000    0.98972
 
 
 Occupation matrix for spin  2
     0.00265    0.00000   -0.00002    0.00000    0.00052    0.00000   -0.00012
     0.00000    0.00739    0.00000   -0.00020    0.00000    0.00571    0.00000
    -0.00002    0.00000    0.00270    0.00000    0.00015    0.00000    0.00034
     0.00000   -0.00020    0.00000    0.00243    0.00000    0.00044    0.00000
     0.00052    0.00000    0.00015    0.00000    0.00269    0.00000    0.00002
     0.00000    0.00571    0.00000    0.00044    0.00000    0.00833    0.00000
    -0.00012    0.00000    0.00034    0.00000    0.00002    0.00000    0.00232
 
 
 
================================================================================
 
 ----iterations are completed or convergence reached----
 
GS calculation converged with prtwf=-1 --> Skipping WFK file output
 reduced coordinates (array xred) for   72 atoms
       0.500000000000     -0.000000000000      0.125000000000
       0.500000000000     -0.000000000000      0.375130065000
       0.500000000000     -0.000000000000      0.625000000000
[...]
                       2.5384831051E+00  2.8384633397E+00  1.1243342971E+01
                       5.4919312077E+00  5.1950835211E+00  1.6064520240E+00
                       5.4929463008E+00  5.1929035882E+00  4.8211772694E+00
                       5.4930861380E+00  5.1933868809E+00  8.0322601200E+00
                       5.4929463008E+00  5.1929035882E+00  1.1243342971E+01
                       4.6978004701E+00  5.8583626769E+00 -1.9141503410E-03
                       4.6978004701E+00  5.8583626769E+00  3.2148181983E+00
                       4.6990215655E+00  5.8605170226E+00  6.4265129545E+00
                       4.6990215655E+00  5.8605170226E+00  9.6380072856E+00
                       3.3336289358E+00  2.1730042511E+00 -1.9141503410E-03
                       3.3336289358E+00  2.1730042511E+00  3.2148181983E+00
                       3.3324078403E+00  2.1708499053E+00  6.4265129545E+00
                       3.3324078403E+00  2.1708499053E+00  9.6380072856E+00
                       2.1752377891E+00  4.6934176008E+00  1.6064520240E+00
                       2.1755122445E+00  4.6947262127E+00  4.8203563159E+00
                       2.1756741970E+00  4.6946858403E+00  8.0322601200E+00
                       2.1755122445E+00  4.6947262127E+00  1.1244163924E+01
                       5.8561916167E+00  3.3379493271E+00  1.6064520240E+00
                       5.8559171614E+00  3.3366407152E+00  4.8203563159E+00
                       5.8557552088E+00  3.3366810876E+00  8.0322601200E+00
                       5.8559171614E+00  3.3366407152E+00  1.1244163924E+01
                       2.0565788173E+00  7.1572216329E+00 -4.0667076381E-03
                       2.0565788173E+00  7.1572216329E+00  3.2169707556E+00
                       2.0666318964E+00  7.1605407112E+00  6.4265354062E+00
                       2.0666318964E+00  7.1605407112E+00  9.6379848338E+00
                       5.9748505885E+00  8.7414529499E-01 -4.0667076381E-03
                       5.9748505885E+00  8.7414529499E-01  3.2169707556E+00
                       5.9647975095E+00  8.7082621672E-01  6.4265354062E+00
                       5.9647975095E+00  8.7082621672E-01  9.6379848338E+00
                       8.6824821949E-01  2.0600565396E+00  1.6064520240E+00
                       8.6799065423E-01  2.0605749456E+00  4.8202262909E+00
                       8.6722666715E-01  2.0601317617E+00  8.0322601200E+00
                       8.6799065423E-01  2.0605749456E+00  1.1244293949E+01
                       7.1631811863E+00  5.9713103883E+00  1.6064520240E+00
                       7.1634387516E+00  5.9707919823E+00  4.8202262909E+00
                       7.1642027387E+00  5.9712351662E+00  8.0322601200E+00
                       7.1634387516E+00  5.9707919823E+00  1.1244293949E+01
            xcart      7.5695224642E+00  1.9078552100E-02  3.0357543710E+00
                       7.5695224642E+00  1.9078552100E-02  9.1104218761E+00
                       7.5695224642E+00  1.9078552100E-02  1.5178771855E+01
                       7.5695224642E+00  1.9078552100E-02  2.1247121834E+01
                       1.9078552100E-02  7.5694634311E+00 -3.8201703448E-04
                       1.9078552100E-02  7.5694634311E+00  6.0718907590E+00
                       1.9078552100E-02  7.5694634311E+00  1.2143752013E+01
                       1.9078552100E-02  7.5694634311E+00  1.8213791697E+01
                       1.9307800287E+00  1.2461515459E+01  3.0357543710E+00
                       1.9323761422E+00  1.2460221888E+01  9.1128638976E+00
                       1.9369326589E+00  1.2462813201E+01  1.5178771855E+01
                       1.9323761422E+00  1.2460221888E+01  2.1244679812E+01
                       1.3246422004E+01  2.7155685078E+00  3.0357543710E+00
                       1.3244825890E+01  2.7168620780E+00  9.1128638976E+00
                       1.3240269374E+01  2.7142707658E+00  1.5178771855E+01
                       1.3244825890E+01  2.7168620780E+00  2.1244679812E+01
                       2.6824389274E+00  1.9189346481E+00 -7.8996592140E-04
                       2.6824389274E+00  1.9189346481E+00  6.0722987079E+00
                       2.6868790553E+00  1.9203233169E+00  1.2143872102E+01
                       2.6868790553E+00  1.9203233169E+00  1.8213671608E+01
                       1.2494763105E+01  1.3258149318E+01 -7.8996592140E-04
                       1.2494763105E+01  1.3258149318E+01  6.0722987079E+00
                       1.2490322977E+01  1.3256760650E+01  1.2143872102E+01
                       1.2490322977E+01  1.3256760650E+01  1.8213671608E+01
                       5.3676320171E+00  1.0374409711E+01 -5.3649772227E-05
                       5.3676320171E+00  1.0374409711E+01  6.0715623917E+00
                       5.3715167588E+00  1.0375048041E+01  1.2143599110E+01
                       5.3715167588E+00  1.0375048041E+01  1.8213944600E+01
                       9.8095700155E+00  4.8026742554E+00 -5.3649772227E-05
                       9.8095700155E+00  4.8026742554E+00  6.0715623917E+00
                       9.8056852738E+00  4.8020359256E+00  1.2143599110E+01
                       9.8056852738E+00  4.8020359256E+00  1.8213944600E+01
                       4.7989561095E+00  5.3597988741E+00  3.0357543710E+00
                       4.7970378615E+00  5.3639183503E+00  9.1107046773E+00
                       4.7967736074E+00  5.3630050595E+00  1.5178771855E+01
                       4.7970378615E+00  5.3639183503E+00  2.1246839033E+01
                       1.0378245923E+01  9.8172850924E+00  3.0357543710E+00
                       1.0380164171E+01  9.8131656162E+00  9.1107046773E+00
                       1.0380428425E+01  9.8140789070E+00  1.5178771855E+01
                       1.0380164171E+01  9.8131656162E+00  2.1246839033E+01
                       8.8775563153E+00  1.1070701046E+01 -3.6172199217E-03
                       8.8775563153E+00  1.1070701046E+01  6.0751259619E+00
                       8.8798638514E+00  1.1074772170E+01  1.2144349473E+01
                       8.8798638514E+00  1.1074772170E+01  1.8213194236E+01
                       6.2996457173E+00  4.1063829201E+00 -3.6172199217E-03
                       6.2996457173E+00  4.1063829201E+00  6.0751259619E+00
                       6.2973381812E+00  4.1023117967E+00  1.2144349473E+01
                       6.2973381812E+00  4.1023117967E+00  1.8213194236E+01
                       4.1106036953E+00  8.8692738928E+00  3.0357543710E+00
                       4.1111223408E+00  8.8717468110E+00  9.1091532999E+00
                       4.1114283867E+00  8.8716705181E+00  1.5178771855E+01
                       4.1111223408E+00  8.8717468110E+00  2.1248390410E+01
                       1.1066598337E+01  6.3078100737E+00  3.0357543710E+00
                       1.1066079692E+01  6.3053371555E+00  9.1091532999E+00
                       1.1065773646E+01  6.3054134484E+00  1.5178771855E+01
                       1.1066079692E+01  6.3053371555E+00  2.1248390410E+01
                       3.8863707354E+00  1.3525188759E+01 -7.6849636985E-03
                       3.8863707354E+00  1.3525188759E+01  6.0791937057E+00
                       3.9053683016E+00  1.3531460908E+01  1.2144391901E+01
                       3.9053683016E+00  1.3531460908E+01  1.8213151809E+01
                       1.1290831297E+01  1.6518952079E+00 -7.6849636985E-03
                       1.1290831297E+01  1.6518952079E+00  6.0791937057E+00
                       1.1271833731E+01  1.6456230589E+00  1.2144391901E+01
                       1.1271833731E+01  1.6456230589E+00  1.8213151809E+01
                       1.6407513502E+00  3.8929426781E+00  3.0357543710E+00
                       1.6402646224E+00  3.8939223235E+00  9.1089075884E+00
                       1.6388208961E+00  3.8930848272E+00  1.5178771855E+01
                       1.6402646224E+00  3.8939223235E+00  2.1248636121E+01
                       1.3536450682E+01  1.1284141288E+01  3.0357543710E+00
                       1.3536937410E+01  1.1283161643E+01  9.1089075884E+00
                       1.3538381137E+01  1.1283999139E+01  1.5178771855E+01
                       1.3536937410E+01  1.1283161643E+01  2.1248636121E+01
             xred      5.0000000000E-01 -2.1684043450E-19  1.2500000000E-01
                       5.0000000000E-01 -2.1684043450E-19  3.7513006500E-01
                       5.0000000000E-01 -2.1684043450E-19  6.2500000000E-01
                       5.0000000000E-01 -2.1684043450E-19  8.7486993500E-01
                      -5.5511151231E-17  5.0000000000E-01 -1.5729905478E-05
                      -5.5511151231E-17  5.0000000000E-01  2.5001572991E-01
                      -5.5511151231E-17  5.0000000000E-01  5.0003024490E-01
                      -5.5511151231E-17  5.0000000000E-01  7.4996975510E-01
                       1.2546255830E-01  8.2282768680E-01  1.2500000000E-01
                       1.2556820460E-01  8.2274197390E-01  3.7523061750E-01
                       1.2586875290E-01  8.2291238520E-01  6.2500000000E-01
                       1.2556820460E-01  8.2274197390E-01  8.7476938250E-01
                       8.7453744170E-01  1.7717231320E-01  1.2500000000E-01
                       8.7443179540E-01  1.7725802610E-01  3.7523061750E-01
                       8.7413124710E-01  1.7708761480E-01  6.2500000000E-01
                       8.7443179540E-01  1.7725802610E-01  8.7476938250E-01
                       1.7686844490E-01  1.2630920790E-01 -3.2527579016E-05
                       1.7686844490E-01  1.2630920790E-01  2.5003252758E-01
                       1.7716150540E-01  1.2640019760E-01  5.0003518970E-01
                       1.7716150540E-01  1.2640019760E-01  7.4996481030E-01
                       8.2313155510E-01  8.7369079210E-01 -3.2527579016E-05
                       8.2313155510E-01  8.7369079210E-01  2.5003252758E-01
                       8.2283849460E-01  8.7359980240E-01  5.0003518970E-01
                       8.2283849460E-01  8.7359980240E-01  7.4996481030E-01
                       3.5283055570E-01  6.8439109410E-01 -2.2090790982E-06
                       3.5283055570E-01  6.8439109410E-01  2.5000220908E-01
                       3.5308705520E-01  6.8443261240E-01  5.0002394900E-01
                       3.5308705520E-01  6.8443261240E-01  7.4997605100E-01
                       6.4716944430E-01  3.1560890590E-01 -2.2090790982E-06
                       6.4716944430E-01  3.1560890590E-01  2.5000220908E-01
                       6.4691294480E-01  3.1556738760E-01  5.0002394900E-01
                       6.4691294480E-01  3.1556738760E-01  7.4997605100E-01
                       3.1610166680E-01  3.5324414990E-01  1.2500000000E-01
                       3.1597427150E-01  3.5351658250E-01  3.7514170960E-01
                       3.1595696830E-01  3.5345629880E-01  6.2500000000E-01
                       3.1597427150E-01  3.5351658250E-01  8.7485829040E-01
                       6.8389833320E-01  6.4675585010E-01  1.2500000000E-01
                       6.8402572850E-01  6.4648341750E-01  3.7514170960E-01
                       6.8404303170E-01  6.4654370120E-01  6.2500000000E-01
                       6.8402572850E-01  6.4648341750E-01  8.7485829040E-01
                       5.8456192480E-01  7.2980046450E-01 -1.4894238300E-04
                       5.8456192480E-01  7.2980046450E-01  2.5014894238E-01
                       5.8471367080E-01  7.3006899960E-01  5.0005484590E-01
                       5.8471367080E-01  7.3006899960E-01  7.4994515410E-01
                       4.1543807520E-01  2.7019953550E-01 -1.4894238300E-04
                       4.1543807520E-01  2.7019953550E-01  2.5014894238E-01
                       4.1528632920E-01  2.6993100040E-01  5.0005484590E-01
                       4.1528632920E-01  2.6993100040E-01  7.4994515410E-01
                       2.7004840860E-01  5.8517817730E-01  1.2500000000E-01
                       2.7008225590E-01  5.8534144030E-01  3.7507783020E-01
                       2.7010248440E-01  5.8533634980E-01  6.2500000000E-01
                       2.7008225590E-01  5.8534144030E-01  8.7492216980E-01
                       7.2995159140E-01  4.1482182270E-01  1.2500000000E-01
                       7.2991774410E-01  4.1465855970E-01  3.7507783020E-01
                       7.2989751560E-01  4.1466365020E-01  6.2500000000E-01
                       7.2991774410E-01  4.1465855970E-01  8.7492216980E-01
                       2.5446159180E-01  8.9276336190E-01 -3.1643550331E-04
                       2.5446159180E-01  8.9276336190E-01  2.5031643550E-01
                       2.5571542770E-01  8.9317450770E-01  5.0005659290E-01
                       2.5571542770E-01  8.9317450770E-01  7.4994340710E-01
                       7.4553840820E-01  1.0723663810E-01 -3.1643550331E-04
                       7.4553840820E-01  1.0723663810E-01  2.5031643550E-01
                       7.4428457230E-01  1.0682549230E-01  5.0005659290E-01
                       7.4428457230E-01  1.0682549230E-01  7.4994340710E-01
                       1.0773134640E-01  2.5687632930E-01  1.2500000000E-01
                       1.0769903260E-01  2.5694112110E-01  3.7506771280E-01
                       1.0760380700E-01  2.5688604040E-01  6.2500000000E-01
                       1.0769903260E-01  2.5694112110E-01  8.7493228720E-01
                       8.9226865360E-01  7.4312367070E-01  1.2500000000E-01
                       8.9230096740E-01  7.4305887890E-01  3.7506771280E-01
                       8.9239619300E-01  7.4311395960E-01  6.2500000000E-01
                       8.9230096740E-01  7.4305887890E-01  8.7493228720E-01
            znucl       63.00000   38.00000    3.00000   13.00000    7.00000    8.00000
 
================================================================================


- Timing analysis has been suppressed with timopt=0



================================================================================

 Suggested references for the acknowledgment of ABINIT usage.

 The users of ABINIT have little formal obligations with respect to the ABINIT group
 (those specified in the GNU General Public License, http://www.gnu.org/copyleft/gpl.txt).
 However, it is common practice in the scientific literature,
 to acknowledge the efforts of people that have made the research possible.
 In this spirit, please find below suggested citations of work written by ABINIT developers,
 corresponding to implementations inside of ABINIT that you have used in the present run.
 Note also that it will be of great value to readers of publications presenting these results,
 to read papers enabling them to understand the theoretical formalism and details
 of the ABINIT implementation.
 For information on why they are suggested, see also https://docs.abinit.org/theory/acknowledgments.
-
- [1] Gamma and beta cerium: DFT+U calculations of ground-state parameters.
- B. Amadon, F. Jollet and M. Torrent, Phys. Rev. B 77, 155104 (2008).
- Comment: DFT+U calculations, usepawu/=0. Strong suggestion to cite this paper.
- DOI and bibtex: see https://docs.abinit.org/theory/bibliography/#amadon2008a
-
- [2] Implementation of the Projector Augmented-Wave Method in the ABINIT code.
- M. Torrent, F. Jollet, F. Bottin, G. Zerah, and X. Gonze Comput. Mat. Science 42, 337, (2008).
- Comment: PAW calculations. Strong suggestion to cite this paper.
- DOI and bibtex: see https://docs.abinit.org/theory/bibliography/#torrent2008
-
- [3] Libxc: A library of exchange and correlation functionals for density functional theory.
- M.A.L. Marques, M.J.T. Oliveira, T. Burnus, Computer Physics Communications 183, 2227 (2012).
- Comment: to be cited when LibXC is used (negative value of ixc)
- Strong suggestion to cite this paper.
- DOI and bibtex: see https://docs.abinit.org/theory/bibliography/#marques2012
-
- [4] Large scale ab initio calculations based on three levels of parallelization
- F. Bottin, S. Leroux, A. Knyazev, G. Zerah, Comput. Mat. Science 42, 329, (2008).
- Comment: in case LOBPCG algorithm is used (wfoptalg=4/14/114).
- Strong suggestion to cite this paper in your publications.
- This paper is also available at http://www.arxiv.org/abs/0707.3405
- DOI and bibtex: see https://docs.abinit.org/theory/bibliography/#bottin2008
-
- [5] The Abinit project: Impact, environment and recent developments.
- Computer Phys. Comm. 248, 107042 (2020).
- X.Gonze, B. Amadon, G. Antonius, F.Arnardi, L.Baguet, J.-M.Beuken,
- J.Bieder, F.Bottin, J.Bouchet, E.Bousquet, N.Brouwer, F.Bruneval,
- G.Brunin, T.Cavignac, J.-B. Charraud, Wei Chen, M.Cote, S.Cottenier,
- J.Denier, G.Geneste, Ph.Ghosez, M.Giantomassi, Y.Gillet, O.Gingras,
- D.R.Hamann, G.Hautier, Xu He, N.Helbig, N.Holzwarth, Y.Jia, F.Jollet,
- W.Lafargue-Dit-Hauret, K.Lejaeghere, M.A.L.Marques, A.Martin, C.Martins,
- H.P.C. Miranda, F.Naccarato, K. Persson, G.Petretto, V.Planes, Y.Pouillon,
- S.Prokhorenko, F.Ricci, G.-M.Rignanese, A.H.Romero, M.M.Schmitt, M.Torrent,
- M.J.van Setten, B.Van Troeye, M.J.Verstraete, G.Zerah and J.W.Zwanzig
- Comment: the fifth generic paper describing the ABINIT project.
- Note that a version of this paper, that is not formatted for Computer Phys. Comm. 
- is available at https://www.abinit.org/sites/default/files/ABINIT20.pdf .
- The licence allows the authors to put it on the Web.
- DOI and bibtex: see https://docs.abinit.org/theory/bibliography/#gonze2020
-
- [6] ABINIT: Overview, and focus on selected capabilities
- J. Chem. Phys. 152, 124102 (2020).
- A. Romero, D.C. Allan, B. Amadon, G. Antonius, T. Applencourt, L.Baguet,
- J.Bieder, F.Bottin, J.Bouchet, E.Bousquet, F.Bruneval,
- G.Brunin, D.Caliste, M.Cote,
- J.Denier, C. Dreyer, Ph.Ghosez, M.Giantomassi, Y.Gillet, O.Gingras,
- D.R.Hamann, G.Hautier, F.Jollet, G. Jomard,
- A.Martin, 
- H.P.C. Miranda, F.Naccarato, G.Petretto, N.A. Pike, V.Planes,
- S.Prokhorenko, T. Rangel, F.Ricci, G.-M.Rignanese, M.Royo, M.Stengel, M.Torrent,
- M.J.van Setten, B.Van Troeye, M.J.Verstraete, J.Wiktor, J.W.Zwanziger, and X.Gonze.
- Comment: a global overview of ABINIT, with focus on selected capabilities .
- Note that a version of this paper, that is not formatted for J. Chem. Phys 
- is available at https://www.abinit.org/sites/default/files/ABINIT20_JPC.pdf .
- The licence allows the authors to put it on the Web.
- DOI and bibtex: see https://docs.abinit.org/theory/bibliography/#romero2020
-
- [7] Recent developments in the ABINIT software package.
- Computer Phys. Comm. 205, 106 (2016).
- X.Gonze, F.Jollet, F.Abreu Araujo, D.Adams, B.Amadon, T.Applencourt,
- C.Audouze, J.-M.Beuken, J.Bieder, A.Bokhanchuk, E.Bousquet, F.Bruneval
- D.Caliste, M.Cote, F.Dahm, F.Da Pieve, M.Delaveau, M.Di Gennaro,
- B.Dorado, C.Espejo, G.Geneste, L.Genovese, A.Gerossier, M.Giantomassi,
- Y.Gillet, D.R.Hamann, L.He, G.Jomard, J.Laflamme Janssen, S.Le Roux,
- A.Levitt, A.Lherbier, F.Liu, I.Lukacevic, A.Martin, C.Martins,
- M.J.T.Oliveira, S.Ponce, Y.Pouillon, T.Rangel, G.-M.Rignanese,
- A.H.Romero, B.Rousseau, O.Rubel, A.A.Shukri, M.Stankovski, M.Torrent,
- M.J.Van Setten, B.Van Troeye, M.J.Verstraete, D.Waroquier, J.Wiktor,
- B.Xu, A.Zhou, J.W.Zwanziger.
- Comment: the fourth generic paper describing the ABINIT project.
- Note that a version of this paper, that is not formatted for Computer Phys. Comm. 
- is available at https://www.abinit.org/sites/default/files/ABINIT16.pdf .
- The licence allows the authors to put it on the Web.
- DOI and bibtex: see https://docs.abinit.org/theory/bibliography/#gonze2016
-
- Proc.   0 individual time (sec): cpu=        164.4  wall=        166.9
 
================================================================================
 
 Calculation completed.
.Delivered   0 WARNINGs and   0 COMMENTs to log file.
+Overall time at end (sec) : cpu=       6625.6  wall=       6669.0
