
.Version 9.4.2 of ABINIT 
.(MPI version, prepared for a x86_64_linux_intel19.1 computer) 

.Copyright (C) 1998-2021 ABINIT group . 
 ABINIT comes with ABSOLUTELY NO WARRANTY.
 It is free software, and you are welcome to redistribute it
 under certain conditions (GNU General Public License,
 see ~abinit/COPYING or http://www.gnu.org/copyleft/gpl.txt).

 ABINIT is a project of the Universite Catholique de Louvain,
 Corning Inc. and other collaborators, see ~abinit/doc/developers/contributors.txt .
 Please read https://docs.abinit.org/theory/acknowledgments for suggested
 acknowledgments of the ABINIT effort.
 For more information, see https://www.abinit.org .

.Starting date : Wed 25 Aug 2021.
- ( at 02h21 )
  
- input  file    -> /scratch/users/j/b/jbouq/LumiWork_tuto/delta_SCF_no_BS/flow_deltaSCF/w0/t0/run.abi
- output file    -> /scratch/users/j/b/jbouq/LumiWork_tuto/delta_SCF_no_BS/flow_deltaSCF/w0/t0/run.abo
- root for input  files -> /scratch/users/j/b/jbouq/LumiWork_tuto/delta_SCF_no_BS/flow_deltaSCF/w0/t0/indata/in
- root for output files -> /scratch/users/j/b/jbouq/LumiWork_tuto/delta_SCF_no_BS/flow_deltaSCF/w0/t0/outdata/out
 
- inpspheads : Reading pseudopotential header in XML form from 
-   /home/ucl/modl/jbouq/psps_paw_pbe/Eu.GGA_PBE-JTH.xml
- inpspheads : Reading pseudopotential header in XML form from 
-   /home/ucl/modl/jbouq/psps_paw_pbe/Sr.GGA_PBE-JTH.xml
- inpspheads : Reading pseudopotential header in XML form from 
-   /home/ucl/modl/jbouq/psps_paw_pbe/Li.GGA_PBE-JTH.xml
- inpspheads : Reading pseudopotential header in XML form from 
-   /home/ucl/modl/jbouq/psps_paw_pbe/Al.GGA_PBE-JTH.xml
- inpspheads : Reading pseudopotential header in XML form from 
-   /home/ucl/modl/jbouq/psps_paw_pbe/N.GGA_PBE-JTH.xml
- inpspheads : Reading pseudopotential header in XML form from 
-   /home/ucl/modl/jbouq/psps_paw_pbe/O.GGA_PBE-JTH.xml
 
 Symmetries : space group P2/m (# 10); Bravais mP (primitive monocl.)
================================================================================
 Values of the parameters that define the memory need of the present run
     intxc =       0    ionmov =      22      iscf =      17    lmnmax =      32
     lnmax =       8     mgfft =      90  mpssoang =       4    mqgrid =    6231
     natom =      72  nloc_mem =       2    nspden =       2   nspinor =       1
    nsppol =       2      nsym =       4    n1xccc =       1    ntypat =       6
    occopt =       2   xclevel =       2
-    mband =         204        mffmem =           1         mkmem =           1
       mpw =        1848          nfft =       32400          nkpt =           2
Pmy_natom=        18
 PAW method is used; the additional fine FFT grid is defined by:
   mgfftf=       150    nfftf =     96000
================================================================================
P This job should need less than                     125.049 Mbytes of memory.
  Rough estimation (10% accuracy) of disk space for files :
_ WF disk file :    230.100 Mbytes ; DEN or POT disk file :      1.467 Mbytes.
================================================================================
 
--------------------------------------------------------------------------------
------------- Echo of variables that govern the present computation ------------
--------------------------------------------------------------------------------
-
- outvars: echo of selected default values                                      
-   iomode0 =  0 , fftalg0 =512 , wfoptalg0 = 10
-
- outvars: echo of global parameters not present in the input file              
-  max_nthreads =    0
-
 -outvars: echo values of preprocessed input variables --------
-          iomode           1
            acell      1.0000000000E+00  1.0000000000E+00  1.0000000000E+00 Bohr
              amu      1.51965000E+02  8.76200000E+01  6.94100000E+00
                       2.69815390E+01  1.40067400E+01  1.59994000E+01
           bandpp          68
       chkdilatmx           0
          chkprim           0
      chksymbreak           0
     densfor_pred           6
           diemac      5.00000000E+00
          dilatmx      1.05000000E+00
             ecut      1.50000000E+01 Hartree
           ecutsm      5.00000000E-01 Hartree
-          fftalg         401
           ionmov          22
              ixc     -101130
            jpawu      2.57245278E-02  0.00000000E+00  0.00000000E+00  0.00000000E+00  0.00000000E+00  0.00000000E+00 Hartree
              kpt      2.50000000E-01  2.50000000E-01  2.50000000E-01
                      -2.50000000E-01  2.50000000E-01  2.50000000E-01
         kptrlatt        2    0    0      0    2    0      0    0    2
          kptrlen      3.00806605E+01
            lpawu           3      -1      -1      -1      -1      -1
P           mkmem           1
            natom          72
            nband         204     204     204     204
            ngfft          60      60      90
          ngfftdg          80      80     150
             nkpt           2
-           npfft          10
-        np_spkpt           4
           nspden           2
           nsppol           2
            nstep         100
             nsym           4
            ntime        1000
           ntypat           6
              occ      1.000000  1.000000  1.000000  1.000000  1.000000  1.000000
                       1.000000  1.000000  1.000000  1.000000  1.000000  1.000000
                       1.000000  1.000000  1.000000  1.000000  1.000000  1.000000
                       1.000000  1.000000  1.000000  1.000000  1.000000  1.000000
                       1.000000  1.000000  1.000000  1.000000  1.000000  1.000000
                       1.000000  1.000000  1.000000  1.000000  1.000000  1.000000
                       1.000000  1.000000  1.000000  1.000000  1.000000  1.000000
                       1.000000  1.000000  1.000000  1.000000  1.000000  1.000000
                       1.000000  1.000000  1.000000  1.000000  1.000000  1.000000
                       1.000000  1.000000  1.000000  1.000000  1.000000  1.000000
                       1.000000  1.000000  1.000000  1.000000  1.000000  1.000000
                       1.000000  1.000000  1.000000  1.000000  1.000000  1.000000
                       1.000000  1.000000  1.000000  1.000000  1.000000  1.000000
                       1.000000  1.000000  1.000000  1.000000  1.000000  1.000000
                       1.000000  1.000000  1.000000  1.000000  1.000000  1.000000
                       1.000000  1.000000  1.000000  1.000000  1.000000  1.000000
                       1.000000  1.000000  1.000000  1.000000  1.000000  1.000000
                       1.000000  1.000000  1.000000  1.000000  1.000000  1.000000
                       1.000000  1.000000  1.000000  1.000000  1.000000  1.000000
                       1.000000  1.000000  1.000000  1.000000  1.000000  1.000000
                       1.000000  1.000000  1.000000  1.000000  1.000000  1.000000
                       1.000000  1.000000  1.000000  1.000000  1.000000  1.000000
                       1.000000  1.000000  1.000000  1.000000  1.000000  1.000000
                       1.000000  1.000000  1.000000  1.000000  1.000000  1.000000
                       1.000000  1.000000  1.000000  1.000000  1.000000  1.000000
                       1.000000  1.000000  1.000000  1.000000  1.000000  1.000000
                       1.000000  1.000000  1.000000  1.000000  1.000000  1.000000
                       1.000000  1.000000  1.000000  1.000000  1.000000  1.000000
                       1.000000  1.000000  1.000000  1.000000  1.000000  1.000000
                       1.000000  1.000000  1.000000  1.000000  1.000000  1.000000
                       1.000000  1.000000  1.000000  0.000000  0.000000  0.000000
                       0.000000  0.000000  0.000000  0.000000  0.000000  0.000000
                       0.000000  0.000000  0.000000  0.000000  0.000000  0.000000
                       0.000000  0.000000  0.000000  0.000000  0.000000  0.000000
                       1.000000  1.000000  1.000000  1.000000  1.000000  1.000000
                       1.000000  1.000000  1.000000  1.000000  1.000000  1.000000
                       1.000000  1.000000  1.000000  1.000000  1.000000  1.000000
                       1.000000  1.000000  1.000000  1.000000  1.000000  1.000000
                       1.000000  1.000000  1.000000  1.000000  1.000000  1.000000
                       1.000000  1.000000  1.000000  1.000000  1.000000  1.000000
                       1.000000  1.000000  1.000000  1.000000  1.000000  1.000000
                       1.000000  1.000000  1.000000  1.000000  1.000000  1.000000
                       1.000000  1.000000  1.000000  1.000000  1.000000  1.000000
                       1.000000  1.000000  1.000000  1.000000  1.000000  1.000000
                       1.000000  1.000000  1.000000  1.000000  1.000000  1.000000
                       1.000000  1.000000  1.000000  1.000000  1.000000  1.000000
                       1.000000  1.000000  1.000000  1.000000  1.000000  1.000000
                       1.000000  1.000000  1.000000  1.000000  1.000000  1.000000
                       1.000000  1.000000  1.000000  1.000000  1.000000  1.000000
                       1.000000  1.000000  1.000000  1.000000  1.000000  1.000000
                       1.000000  1.000000  1.000000  1.000000  1.000000  1.000000
                       1.000000  1.000000  1.000000  1.000000  1.000000  1.000000
                       1.000000  1.000000  1.000000  1.000000  1.000000  1.000000
                       1.000000  1.000000  1.000000  1.000000  1.000000  1.000000
                       1.000000  1.000000  1.000000  1.000000  1.000000  1.000000
                       1.000000  1.000000  1.000000  1.000000  1.000000  1.000000
                       1.000000  1.000000  1.000000  1.000000  1.000000  1.000000
                       1.000000  1.000000  1.000000  1.000000  1.000000  1.000000
                       1.000000  1.000000  1.000000  1.000000  1.000000  1.000000
                       1.000000  1.000000  1.000000  1.000000  1.000000  1.000000
                       1.000000  1.000000  1.000000  1.000000  1.000000  1.000000
                       1.000000  1.000000  1.000000  1.000000  1.000000  1.000000
                       1.000000  1.000000  1.000000  1.000000  1.000000  1.000000
                       1.000000  1.000000  1.000000  1.000000  1.000000  1.000000
                       1.000000  1.000000  1.000000  0.000000  0.000000  0.000000
                       0.000000  0.000000  0.000000  0.000000  0.000000  0.000000
                       0.000000  0.000000  0.000000  0.000000  0.000000  0.000000
                       0.000000  0.000000  0.000000  0.000000  0.000000  0.000000
                       1.000000  1.000000  1.000000  1.000000  1.000000  1.000000
                       1.000000  1.000000  1.000000  1.000000  1.000000  1.000000
                       1.000000  1.000000  1.000000  1.000000  1.000000  1.000000
                       1.000000  1.000000  1.000000  1.000000  1.000000  1.000000
                       1.000000  1.000000  1.000000  1.000000  1.000000  1.000000
                       1.000000  1.000000  1.000000  1.000000  1.000000  1.000000
                       1.000000  1.000000  1.000000  1.000000  1.000000  1.000000
                       1.000000  1.000000  1.000000  1.000000  1.000000  1.000000
                       1.000000  1.000000  1.000000  1.000000  1.000000  1.000000
                       1.000000  1.000000  1.000000  1.000000  1.000000  1.000000
                       1.000000  1.000000  1.000000  1.000000  1.000000  1.000000
                       1.000000  1.000000  1.000000  1.000000  1.000000  1.000000
                       1.000000  1.000000  1.000000  1.000000  1.000000  1.000000
                       1.000000  1.000000  1.000000  1.000000  1.000000  1.000000
                       1.000000  1.000000  1.000000  1.000000  1.000000  1.000000
                       1.000000  1.000000  1.000000  1.000000  1.000000  1.000000
                       1.000000  1.000000  1.000000  1.000000  1.000000  1.000000
                       1.000000  1.000000  1.000000  1.000000  1.000000  1.000000
                       1.000000  1.000000  1.000000  1.000000  1.000000  1.000000
                       1.000000  1.000000  1.000000  1.000000  1.000000  1.000000
                       1.000000  1.000000  1.000000  1.000000  1.000000  1.000000
                       1.000000  1.000000  1.000000  1.000000  1.000000  1.000000
                       1.000000  1.000000  1.000000  1.000000  1.000000  1.000000
                       1.000000  1.000000  1.000000  1.000000  1.000000  1.000000
                       1.000000  1.000000  1.000000  1.000000  1.000000  1.000000
                       1.000000  1.000000  1.000000  1.000000  1.000000  1.000000
                       1.000000  1.000000  1.000000  1.000000  1.000000  1.000000
                       1.000000  1.000000  1.000000  1.000000  1.000000  1.000000
                       1.000000  1.000000  1.000000  1.000000  1.000000  1.000000
                       1.000000  1.000000  0.000000  0.000000  0.000000  0.000000
                       0.000000  0.000000  0.000000  0.000000  0.000000  0.000000
                       0.000000  0.000000  0.000000  0.000000  0.000000  0.000000
                       0.000000  0.000000  0.000000  0.000000  0.000000  0.000000
                       0.000000  0.000000  0.000000  0.000000  0.000000  0.000000
                       1.000000  1.000000  1.000000  1.000000  1.000000  1.000000
                       1.000000  1.000000  1.000000  1.000000  1.000000  1.000000
                       1.000000  1.000000  1.000000  1.000000  1.000000  1.000000
                       1.000000  1.000000  1.000000  1.000000  1.000000  1.000000
                       1.000000  1.000000  1.000000  1.000000  1.000000  1.000000
                       1.000000  1.000000  1.000000  1.000000  1.000000  1.000000
                       1.000000  1.000000  1.000000  1.000000  1.000000  1.000000
                       1.000000  1.000000  1.000000  1.000000  1.000000  1.000000
                       1.000000  1.000000  1.000000  1.000000  1.000000  1.000000
                       1.000000  1.000000  1.000000  1.000000  1.000000  1.000000
                       1.000000  1.000000  1.000000  1.000000  1.000000  1.000000
                       1.000000  1.000000  1.000000  1.000000  1.000000  1.000000
                       1.000000  1.000000  1.000000  1.000000  1.000000  1.000000
                       1.000000  1.000000  1.000000  1.000000  1.000000  1.000000
                       1.000000  1.000000  1.000000  1.000000  1.000000  1.000000
                       1.000000  1.000000  1.000000  1.000000  1.000000  1.000000
                       1.000000  1.000000  1.000000  1.000000  1.000000  1.000000
                       1.000000  1.000000  1.000000  1.000000  1.000000  1.000000
                       1.000000  1.000000  1.000000  1.000000  1.000000  1.000000
                       1.000000  1.000000  1.000000  1.000000  1.000000  1.000000
                       1.000000  1.000000  1.000000  1.000000  1.000000  1.000000
                       1.000000  1.000000  1.000000  1.000000  1.000000  1.000000
                       1.000000  1.000000  1.000000  1.000000  1.000000  1.000000
                       1.000000  1.000000  1.000000  1.000000  1.000000  1.000000
                       1.000000  1.000000  1.000000  1.000000  1.000000  1.000000
                       1.000000  1.000000  1.000000  1.000000  1.000000  1.000000
                       1.000000  1.000000  1.000000  1.000000  1.000000  1.000000
                       1.000000  1.000000  1.000000  1.000000  1.000000  1.000000
                       1.000000  1.000000  1.000000  1.000000  1.000000  1.000000
                       1.000000  1.000000  0.000000  0.000000  0.000000  0.000000
                       0.000000  0.000000  0.000000  0.000000  0.000000  0.000000
                       0.000000  0.000000  0.000000  0.000000  0.000000  0.000000
                       0.000000  0.000000  0.000000  0.000000  0.000000  0.000000
                       0.000000  0.000000  0.000000  0.000000  0.000000  0.000000
           occopt           2
          optcell           2
        optforces           1
        paral_kgb           1
        pawecutdg      3.00000000E+01 Hartree
         pawmixdg           1
            prtwf          -1
            rprim      1.5040330226E+01  0.0000000000E+00  0.0000000000E+00
                       0.0000000000E+00  1.5040330226E+01  0.0000000000E+00
                       0.0000000000E+00  0.0000000000E+00  2.4067551923E+01
           shiftk      5.00000000E-01  5.00000000E-01  5.00000000E-01
          spgroup          10
           spinat      0.0000000000E+00  0.0000000000E+00  7.0000000000E+00
                       0.0000000000E+00  0.0000000000E+00  0.0000000000E+00
                       0.0000000000E+00  0.0000000000E+00  0.0000000000E+00
                       0.0000000000E+00  0.0000000000E+00  0.0000000000E+00
                       0.0000000000E+00  0.0000000000E+00  0.0000000000E+00
                       0.0000000000E+00  0.0000000000E+00  0.0000000000E+00
                       0.0000000000E+00  0.0000000000E+00  0.0000000000E+00
                       0.0000000000E+00  0.0000000000E+00  0.0000000000E+00
                       0.0000000000E+00  0.0000000000E+00  0.0000000000E+00
                       0.0000000000E+00  0.0000000000E+00  0.0000000000E+00
                       0.0000000000E+00  0.0000000000E+00  0.0000000000E+00
                       0.0000000000E+00  0.0000000000E+00  0.0000000000E+00
                       0.0000000000E+00  0.0000000000E+00  0.0000000000E+00
                       0.0000000000E+00  0.0000000000E+00  0.0000000000E+00
                       0.0000000000E+00  0.0000000000E+00  0.0000000000E+00
                       0.0000000000E+00  0.0000000000E+00  0.0000000000E+00
                       0.0000000000E+00  0.0000000000E+00  0.0000000000E+00
                       0.0000000000E+00  0.0000000000E+00  0.0000000000E+00
                       0.0000000000E+00  0.0000000000E+00  0.0000000000E+00
                       0.0000000000E+00  0.0000000000E+00  0.0000000000E+00
                       0.0000000000E+00  0.0000000000E+00  0.0000000000E+00
                       0.0000000000E+00  0.0000000000E+00  0.0000000000E+00
                       0.0000000000E+00  0.0000000000E+00  0.0000000000E+00
                       0.0000000000E+00  0.0000000000E+00  0.0000000000E+00
                       0.0000000000E+00  0.0000000000E+00  0.0000000000E+00
                       0.0000000000E+00  0.0000000000E+00  0.0000000000E+00
                       0.0000000000E+00  0.0000000000E+00  0.0000000000E+00
                       0.0000000000E+00  0.0000000000E+00  0.0000000000E+00
                       0.0000000000E+00  0.0000000000E+00  0.0000000000E+00
                       0.0000000000E+00  0.0000000000E+00  0.0000000000E+00
                       0.0000000000E+00  0.0000000000E+00  0.0000000000E+00
                       0.0000000000E+00  0.0000000000E+00  0.0000000000E+00
                       0.0000000000E+00  0.0000000000E+00  0.0000000000E+00
                       0.0000000000E+00  0.0000000000E+00  0.0000000000E+00
                       0.0000000000E+00  0.0000000000E+00  0.0000000000E+00
                       0.0000000000E+00  0.0000000000E+00  0.0000000000E+00
                       0.0000000000E+00  0.0000000000E+00  0.0000000000E+00
                       0.0000000000E+00  0.0000000000E+00  0.0000000000E+00
                       0.0000000000E+00  0.0000000000E+00  0.0000000000E+00
                       0.0000000000E+00  0.0000000000E+00  0.0000000000E+00
                       0.0000000000E+00  0.0000000000E+00  0.0000000000E+00
                       0.0000000000E+00  0.0000000000E+00  0.0000000000E+00
                       0.0000000000E+00  0.0000000000E+00  0.0000000000E+00
                       0.0000000000E+00  0.0000000000E+00  0.0000000000E+00
                       0.0000000000E+00  0.0000000000E+00  0.0000000000E+00
                       0.0000000000E+00  0.0000000000E+00  0.0000000000E+00
                       0.0000000000E+00  0.0000000000E+00  0.0000000000E+00
                       0.0000000000E+00  0.0000000000E+00  0.0000000000E+00
                       0.0000000000E+00  0.0000000000E+00  0.0000000000E+00
                       0.0000000000E+00  0.0000000000E+00  0.0000000000E+00
                       0.0000000000E+00  0.0000000000E+00  0.0000000000E+00
                       0.0000000000E+00  0.0000000000E+00  0.0000000000E+00
                       0.0000000000E+00  0.0000000000E+00  0.0000000000E+00
                       0.0000000000E+00  0.0000000000E+00  0.0000000000E+00
                       0.0000000000E+00  0.0000000000E+00  0.0000000000E+00
                       0.0000000000E+00  0.0000000000E+00  0.0000000000E+00
                       0.0000000000E+00  0.0000000000E+00  0.0000000000E+00
                       0.0000000000E+00  0.0000000000E+00  0.0000000000E+00
                       0.0000000000E+00  0.0000000000E+00  0.0000000000E+00
                       0.0000000000E+00  0.0000000000E+00  0.0000000000E+00
                       0.0000000000E+00  0.0000000000E+00  0.0000000000E+00
                       0.0000000000E+00  0.0000000000E+00  0.0000000000E+00
                       0.0000000000E+00  0.0000000000E+00  0.0000000000E+00
                       0.0000000000E+00  0.0000000000E+00  0.0000000000E+00
                       0.0000000000E+00  0.0000000000E+00  0.0000000000E+00
                       0.0000000000E+00  0.0000000000E+00  0.0000000000E+00
                       0.0000000000E+00  0.0000000000E+00  0.0000000000E+00
                       0.0000000000E+00  0.0000000000E+00  0.0000000000E+00
                       0.0000000000E+00  0.0000000000E+00  0.0000000000E+00
                       0.0000000000E+00  0.0000000000E+00  0.0000000000E+00
                       0.0000000000E+00  0.0000000000E+00  0.0000000000E+00
                       0.0000000000E+00  0.0000000000E+00  0.0000000000E+00
           symrel      1  0  0   0  1  0   0  0  1      -1  0  0   0 -1  0   0  0 -1
                      -1  0  0   0 -1  0   0  0  1       1  0  0   0  1  0   0  0 -1
            tnons      0.0000000  0.0000000  0.0000000    -0.0000000  0.0000000  0.2500000
                      -0.0000000  0.0000000  0.0000000     0.0000000  0.0000000  0.2500000
           toldff      1.00000000E-05
           tolmxf      1.00000000E-04
            typat      1  2  2  2  2  2  2  2  3  3  3  3  3  3  3  3  3  3  3  3
                       3  3  3  3  4  4  4  4  4  4  4  4  4  4  4  4  4  4  4  4
                       5  5  5  5  5  5  5  5  5  5  5  5  5  5  5  5  6  6  6  6
                       6  6  6  6  6  6  6  6  6  6  6  6
            upawu      2.57245278E-01  0.00000000E+00  0.00000000E+00  0.00000000E+00  0.00000000E+00  0.00000000E+00 Hartree
          usepawu           1
           useylm           1
         wfoptalg         114
              wtk        0.50000    0.50000
           xangst      3.9794999826E+00  0.0000000000E+00  1.5919999930E+00
                       3.9794999826E+00  0.0000000000E+00  4.7759999791E+00
                       3.9794999826E+00  0.0000000000E+00  7.9599999652E+00
                       3.9794999826E+00  0.0000000000E+00  1.1143999951E+01
                       0.0000000000E+00  3.9794999826E+00  0.0000000000E+00
                       0.0000000000E+00  3.9794999826E+00  3.1839999861E+00
                       0.0000000000E+00  3.9794999826E+00  6.3679999722E+00
                       0.0000000000E+00  3.9794999826E+00  9.5519999582E+00
                       1.0426289954E+00  6.5343389714E+00  1.5919999930E+00
                       1.0426289954E+00  6.5343389714E+00  4.7759999791E+00
                       1.0426289954E+00  6.5343389714E+00  7.9599999652E+00
                       1.0426289954E+00  6.5343389714E+00  1.1143999951E+01
                       6.9163709698E+00  1.4246609938E+00  1.5919999930E+00
                       6.9163709698E+00  1.4246609938E+00  4.7759999791E+00
                       6.9163709698E+00  1.4246609938E+00  7.9599999652E+00
                       6.9163709698E+00  1.4246609938E+00  1.1143999951E+01
                       1.4246609938E+00  1.0426289954E+00  0.0000000000E+00
                       1.4246609938E+00  1.0426289954E+00  3.1839999861E+00
                       1.4246609938E+00  1.0426289954E+00  6.3679999722E+00
                       1.4246609938E+00  1.0426289954E+00  9.5519999582E+00
                       6.5343389714E+00  6.9163709698E+00  0.0000000000E+00
                       6.5343389714E+00  6.9163709698E+00  3.1839999861E+00
                       6.5343389714E+00  6.9163709698E+00  6.3679999722E+00
                       6.5343389714E+00  6.9163709698E+00  9.5519999582E+00
                       2.8119146877E+00  5.4455477762E+00  0.0000000000E+00
                       2.8119146877E+00  5.4455477762E+00  3.1839999861E+00
                       2.8119146877E+00  5.4455477762E+00  6.3679999722E+00
                       2.8119146877E+00  5.4455477762E+00  9.5519999582E+00
                       5.1470852775E+00  2.5134521890E+00  0.0000000000E+00
                       5.1470852775E+00  2.5134521890E+00  3.1839999861E+00
                       5.1470852775E+00  2.5134521890E+00  6.3679999722E+00
                       5.1470852775E+00  2.5134521890E+00  9.5519999582E+00
                       2.5134521890E+00  2.8119146877E+00  1.5919999930E+00
                       2.5134521890E+00  2.8119146877E+00  4.7759999791E+00
                       2.5134521890E+00  2.8119146877E+00  7.9599999652E+00
                       2.5134521890E+00  2.8119146877E+00  1.1143999951E+01
                       5.4455477762E+00  5.1470852775E+00  1.5919999930E+00
                       5.4455477762E+00  5.1470852775E+00  4.7759999791E+00
                       5.4455477762E+00  5.1470852775E+00  7.9599999652E+00
                       5.4455477762E+00  5.1470852775E+00  1.1143999951E+01
                       4.6599944796E+00  5.8092740746E+00  0.0000000000E+00
                       4.6599944796E+00  5.8092740746E+00  3.1839999861E+00
                       4.6599944796E+00  5.8092740746E+00  6.3679999722E+00
                       4.6599944796E+00  5.8092740746E+00  9.5519999582E+00
                       3.2990054856E+00  2.1497258906E+00  0.0000000000E+00
                       3.2990054856E+00  2.1497258906E+00  3.1839999861E+00
                       3.2990054856E+00  2.1497258906E+00  6.3679999722E+00
                       3.2990054856E+00  2.1497258906E+00  9.5519999582E+00
                       2.1497258906E+00  4.6599944796E+00  1.5919999930E+00
                       2.1497258906E+00  4.6599944796E+00  4.7759999791E+00
                       2.1497258906E+00  4.6599944796E+00  7.9599999652E+00
                       2.1497258906E+00  4.6599944796E+00  1.1143999951E+01
                       5.8092740746E+00  3.2990054856E+00  1.5919999930E+00
                       5.8092740746E+00  3.2990054856E+00  4.7759999791E+00
                       5.8092740746E+00  3.2990054856E+00  7.9599999652E+00
                       5.8092740746E+00  3.2990054856E+00  1.1143999951E+01
                       2.0263613911E+00  7.1113664689E+00  0.0000000000E+00
                       2.0263613911E+00  7.1113664689E+00  3.1839999861E+00
                       2.0263613911E+00  7.1113664689E+00  6.3679999722E+00
                       2.0263613911E+00  7.1113664689E+00  9.5519999582E+00
                       5.9326385741E+00  8.4763349630E-01  0.0000000000E+00
                       5.9326385741E+00  8.4763349630E-01  3.1839999861E+00
                       5.9326385741E+00  8.4763349630E-01  6.3679999722E+00
                       5.9326385741E+00  8.4763349630E-01  9.5519999582E+00
                       8.4763349630E-01  2.0263613911E+00  1.5919999930E+00
                       8.4763349630E-01  2.0263613911E+00  4.7759999791E+00
                       8.4763349630E-01  2.0263613911E+00  7.9599999652E+00
                       8.4763349630E-01  2.0263613911E+00  1.1143999951E+01
                       7.1113664689E+00  5.9326385741E+00  1.5919999930E+00
                       7.1113664689E+00  5.9326385741E+00  4.7759999791E+00
                       7.1113664689E+00  5.9326385741E+00  7.9599999652E+00
                       7.1113664689E+00  5.9326385741E+00  1.1143999951E+01
            xcart      7.5201651129E+00  0.0000000000E+00  3.0084439904E+00
                       7.5201651129E+00  0.0000000000E+00  9.0253319712E+00
                       7.5201651129E+00  0.0000000000E+00  1.5042219952E+01
                       7.5201651129E+00  0.0000000000E+00  2.1059107933E+01
                       0.0000000000E+00  7.5201651129E+00  0.0000000000E+00
                       0.0000000000E+00  7.5201651129E+00  6.0168879808E+00
                       0.0000000000E+00  7.5201651129E+00  1.2033775962E+01
                       0.0000000000E+00  7.5201651129E+00  1.8050663942E+01
                       1.9702832596E+00  1.2348111115E+01  3.0084439904E+00
                       1.9702832596E+00  1.2348111115E+01  9.0253319712E+00
                       1.9702832596E+00  1.2348111115E+01  1.5042219952E+01
                       1.9702832596E+00  1.2348111115E+01  2.1059107933E+01
                       1.3070046966E+01  2.6922191104E+00  3.0084439904E+00
                       1.3070046966E+01  2.6922191104E+00  9.0253319712E+00
                       1.3070046966E+01  2.6922191104E+00  1.5042219952E+01
                       1.3070046966E+01  2.6922191104E+00  2.1059107933E+01
                       2.6922191104E+00  1.9702832596E+00  0.0000000000E+00
                       2.6922191104E+00  1.9702832596E+00  6.0168879808E+00
                       2.6922191104E+00  1.9702832596E+00  1.2033775962E+01
                       2.6922191104E+00  1.9702832596E+00  1.8050663942E+01
                       1.2348111115E+01  1.3070046966E+01  0.0000000000E+00
                       1.2348111115E+01  1.3070046966E+01  6.0168879808E+00
                       1.2348111115E+01  1.3070046966E+01  1.2033775962E+01
                       1.2348111115E+01  1.3070046966E+01  1.8050663942E+01
                       5.3137486688E+00  1.0290593941E+01  0.0000000000E+00
                       5.3137486688E+00  1.0290593941E+01  6.0168879808E+00
                       5.3137486688E+00  1.0290593941E+01  1.2033775962E+01
                       5.3137486688E+00  1.0290593941E+01  1.8050663942E+01
                       9.7265815571E+00  4.7497362853E+00  0.0000000000E+00
                       9.7265815571E+00  4.7497362853E+00  6.0168879808E+00
                       9.7265815571E+00  4.7497362853E+00  1.2033775962E+01
                       9.7265815571E+00  4.7497362853E+00  1.8050663942E+01
                       4.7497362853E+00  5.3137486688E+00  3.0084439904E+00
                       4.7497362853E+00  5.3137486688E+00  9.0253319712E+00
                       4.7497362853E+00  5.3137486688E+00  1.5042219952E+01
                       4.7497362853E+00  5.3137486688E+00  2.1059107933E+01
                       1.0290593941E+01  9.7265815571E+00  3.0084439904E+00
                       1.0290593941E+01  9.7265815571E+00  9.0253319712E+00
                       1.0290593941E+01  9.7265815571E+00  1.5042219952E+01
                       1.0290593941E+01  9.7265815571E+00  2.1059107933E+01
                       8.8061133473E+00  1.0977937032E+01  0.0000000000E+00
                       8.8061133473E+00  1.0977937032E+01  6.0168879808E+00
                       8.8061133473E+00  1.0977937032E+01  1.2033775962E+01
                       8.8061133473E+00  1.0977937032E+01  1.8050663942E+01
                       6.2342168786E+00  4.0623931940E+00  0.0000000000E+00
                       6.2342168786E+00  4.0623931940E+00  6.0168879808E+00
                       6.2342168786E+00  4.0623931940E+00  1.2033775962E+01
                       6.2342168786E+00  4.0623931940E+00  1.8050663942E+01
                       4.0623931940E+00  8.8061133473E+00  3.0084439904E+00
                       4.0623931940E+00  8.8061133473E+00  9.0253319712E+00
                       4.0623931940E+00  8.8061133473E+00  1.5042219952E+01
                       4.0623931940E+00  8.8061133473E+00  2.1059107933E+01
                       1.0977937032E+01  6.2342168786E+00  3.0084439904E+00
                       1.0977937032E+01  6.2342168786E+00  9.0253319712E+00
                       1.0977937032E+01  6.2342168786E+00  1.5042219952E+01
                       1.0977937032E+01  6.2342168786E+00  2.1059107933E+01
                       3.8292680755E+00  1.3438535057E+01  0.0000000000E+00
                       3.8292680755E+00  1.3438535057E+01  6.0168879808E+00
                       3.8292680755E+00  1.3438535057E+01  1.2033775962E+01
                       3.8292680755E+00  1.3438535057E+01  1.8050663942E+01
                       1.1211062150E+01  1.6017951691E+00  0.0000000000E+00
                       1.1211062150E+01  1.6017951691E+00  6.0168879808E+00
                       1.1211062150E+01  1.6017951691E+00  1.2033775962E+01
                       1.1211062150E+01  1.6017951691E+00  1.8050663942E+01
                       1.6017951691E+00  3.8292680755E+00  3.0084439904E+00
                       1.6017951691E+00  3.8292680755E+00  9.0253319712E+00
                       1.6017951691E+00  3.8292680755E+00  1.5042219952E+01
                       1.6017951691E+00  3.8292680755E+00  2.1059107933E+01
                       1.3438535057E+01  1.1211062150E+01  3.0084439904E+00
                       1.3438535057E+01  1.1211062150E+01  9.0253319712E+00
                       1.3438535057E+01  1.1211062150E+01  1.5042219952E+01
                       1.3438535057E+01  1.1211062150E+01  2.1059107933E+01
             xred      5.0000000000E-01  0.0000000000E+00  1.2500000000E-01
                       5.0000000000E-01  0.0000000000E+00  3.7500000000E-01
                       5.0000000000E-01  0.0000000000E+00  6.2500000000E-01
                       5.0000000000E-01  0.0000000000E+00  8.7500000000E-01
                       0.0000000000E+00  5.0000000000E-01  0.0000000000E+00
                       0.0000000000E+00  5.0000000000E-01  2.5000000000E-01
                       0.0000000000E+00  5.0000000000E-01  5.0000000000E-01
                       0.0000000000E+00  5.0000000000E-01  7.5000000000E-01
                       1.3100000000E-01  8.2100000000E-01  1.2500000000E-01
                       1.3100000000E-01  8.2100000000E-01  3.7500000000E-01
                       1.3100000000E-01  8.2100000000E-01  6.2500000000E-01
                       1.3100000000E-01  8.2100000000E-01  8.7500000000E-01
                       8.6900000000E-01  1.7900000000E-01  1.2500000000E-01
                       8.6900000000E-01  1.7900000000E-01  3.7500000000E-01
                       8.6900000000E-01  1.7900000000E-01  6.2500000000E-01
                       8.6900000000E-01  1.7900000000E-01  8.7500000000E-01
                       1.7900000000E-01  1.3100000000E-01  0.0000000000E+00
                       1.7900000000E-01  1.3100000000E-01  2.5000000000E-01
                       1.7900000000E-01  1.3100000000E-01  5.0000000000E-01
                       1.7900000000E-01  1.3100000000E-01  7.5000000000E-01
                       8.2100000000E-01  8.6900000000E-01  0.0000000000E+00
                       8.2100000000E-01  8.6900000000E-01  2.5000000000E-01
                       8.2100000000E-01  8.6900000000E-01  5.0000000000E-01
                       8.2100000000E-01  8.6900000000E-01  7.5000000000E-01
                       3.5330000000E-01  6.8420000000E-01  0.0000000000E+00
                       3.5330000000E-01  6.8420000000E-01  2.5000000000E-01
                       3.5330000000E-01  6.8420000000E-01  5.0000000000E-01
                       3.5330000000E-01  6.8420000000E-01  7.5000000000E-01
                       6.4670000000E-01  3.1580000000E-01  0.0000000000E+00
                       6.4670000000E-01  3.1580000000E-01  2.5000000000E-01
                       6.4670000000E-01  3.1580000000E-01  5.0000000000E-01
                       6.4670000000E-01  3.1580000000E-01  7.5000000000E-01
                       3.1580000000E-01  3.5330000000E-01  1.2500000000E-01
                       3.1580000000E-01  3.5330000000E-01  3.7500000000E-01
                       3.1580000000E-01  3.5330000000E-01  6.2500000000E-01
                       3.1580000000E-01  3.5330000000E-01  8.7500000000E-01
                       6.8420000000E-01  6.4670000000E-01  1.2500000000E-01
                       6.8420000000E-01  6.4670000000E-01  3.7500000000E-01
                       6.8420000000E-01  6.4670000000E-01  6.2500000000E-01
                       6.8420000000E-01  6.4670000000E-01  8.7500000000E-01
                       5.8550000000E-01  7.2990000000E-01  0.0000000000E+00
                       5.8550000000E-01  7.2990000000E-01  2.5000000000E-01
                       5.8550000000E-01  7.2990000000E-01  5.0000000000E-01
                       5.8550000000E-01  7.2990000000E-01  7.5000000000E-01
                       4.1450000000E-01  2.7010000000E-01  0.0000000000E+00
                       4.1450000000E-01  2.7010000000E-01  2.5000000000E-01
                       4.1450000000E-01  2.7010000000E-01  5.0000000000E-01
                       4.1450000000E-01  2.7010000000E-01  7.5000000000E-01
                       2.7010000000E-01  5.8550000000E-01  1.2500000000E-01
                       2.7010000000E-01  5.8550000000E-01  3.7500000000E-01
                       2.7010000000E-01  5.8550000000E-01  6.2500000000E-01
                       2.7010000000E-01  5.8550000000E-01  8.7500000000E-01
                       7.2990000000E-01  4.1450000000E-01  1.2500000000E-01
                       7.2990000000E-01  4.1450000000E-01  3.7500000000E-01
                       7.2990000000E-01  4.1450000000E-01  6.2500000000E-01
                       7.2990000000E-01  4.1450000000E-01  8.7500000000E-01
                       2.5460000000E-01  8.9350000000E-01  0.0000000000E+00
                       2.5460000000E-01  8.9350000000E-01  2.5000000000E-01
                       2.5460000000E-01  8.9350000000E-01  5.0000000000E-01
                       2.5460000000E-01  8.9350000000E-01  7.5000000000E-01
                       7.4540000000E-01  1.0650000000E-01  0.0000000000E+00
                       7.4540000000E-01  1.0650000000E-01  2.5000000000E-01
                       7.4540000000E-01  1.0650000000E-01  5.0000000000E-01
                       7.4540000000E-01  1.0650000000E-01  7.5000000000E-01
                       1.0650000000E-01  2.5460000000E-01  1.2500000000E-01
                       1.0650000000E-01  2.5460000000E-01  3.7500000000E-01
                       1.0650000000E-01  2.5460000000E-01  6.2500000000E-01
                       1.0650000000E-01  2.5460000000E-01  8.7500000000E-01
                       8.9350000000E-01  7.4540000000E-01  1.2500000000E-01
                       8.9350000000E-01  7.4540000000E-01  3.7500000000E-01
                       8.9350000000E-01  7.4540000000E-01  6.2500000000E-01
                       8.9350000000E-01  7.4540000000E-01  8.7500000000E-01
            znucl       63.00000   38.00000    3.00000   13.00000    7.00000    8.00000
 
================================================================================
 
 chkinp: Checking input parameters for consistency.
 
================================================================================
== DATASET  1 ==================================================================
-   mpi_nproc: 40, omp_nthreads: -1 (-1 if OMP is not activated)
 

--- !DatasetInfo
iteration_state: {dtset: 1, }
dimensions: {natom: 72, nkpt: 2, mband: 204, nsppol: 2, nspinor: 1, nspden: 2, mpw: 1848, }
cutoff_energies: {ecut:  15.0, pawecutdg:  30.0, }
electrons: {nelect:   3.59000000E+02, charge:   0.00000000E+00, occopt:   2.00000000E+00, tsmear:   1.00000000E-02, }
meta: {optdriver: 0, ionmov: 22, optcell: 2, iscf: 17, paral_kgb: 1, }
...

 Real(R)+Recip(G) space primitive vectors, cartesian coordinates (Bohr,Bohr^-1):
 R(1)= 15.0403302  0.0000000  0.0000000  G(1)=  0.0664879  0.0000000  0.0000000
 R(2)=  0.0000000 15.0403302  0.0000000  G(2)=  0.0000000  0.0664879  0.0000000
 R(3)=  0.0000000  0.0000000 24.0675519  G(3)=  0.0000000  0.0000000  0.0415497
 Unit cell volume ucvol=  5.4443578E+03 bohr^3
 Angles (23,13,12)=  9.00000000E+01  9.00000000E+01  9.00000000E+01 degrees
 
 Coarse grid specifications (used for wave-functions):
 
 getcut: wavevector=  0.0000  0.0000  0.0000  ngfft=  60  60  90
         ecut(hartree)=     16.538   => boxcut(ratio)=   2.04273
 
 Fine grid specifications (used for densities):
 
 getcut: wavevector=  0.0000  0.0000  0.0000  ngfft=  80  80 150
         ecut(hartree)=     33.075   => boxcut(ratio)=   2.05455
 
--- Pseudopotential description ------------------------------------------------
- pspini: atom type   1  psp file is /home/ucl/modl/jbouq/psps_paw_pbe/Eu.GGA_PBE-JTH.xml
- pspatm: opening atomic psp file    /home/ucl/modl/jbouq/psps_paw_pbe/Eu.GGA_PBE-JTH.xml
- pspatm : Reading pseudopotential header in XML form from /home/ucl/modl/jbouq/psps_paw_pbe/Eu.GGA_PBE-JTH.xml
 Pseudopotential format is: paw10
 basis_size (lnmax)=  8 (lmn_size= 32), orbitals=   0   0   1   1   2   2   3   3
 Spheres core radius: rc_sph= 2.52170005
 1 radial meshes are used:
  - mesh 1: r(i)=AA*[exp(BB*(i-1))-1], size=1500 , AA= 0.14034E-03 BB= 0.88415E-02
 Shapefunction is SIN type: shapef(r)=[sin(pi*r/rshp)/(pi*r/rshp)]**2
 Radius for shape functions =  2.30830346
 mmax= 1500
 Radial grid used for partial waves is grid 1
 Radial grid used for projectors is grid 1
 Radial grid used for (t)core density is grid 1
 Radial grid used for Vloc is grid 1
 Radial grid used for pseudo valence density is grid 1
 Mesh size for Vloc has been set to 1343 to avoid numerical noise.
 Compensation charge density is not taken into account in XC energy/potential
 pspatm: atomic psp has been read  and splines computed
 
- pspini: atom type   2  psp file is /home/ucl/modl/jbouq/psps_paw_pbe/Sr.GGA_PBE-JTH.xml
- pspatm: opening atomic psp file    /home/ucl/modl/jbouq/psps_paw_pbe/Sr.GGA_PBE-JTH.xml
- pspatm : Reading pseudopotential header in XML form from /home/ucl/modl/jbouq/psps_paw_pbe/Sr.GGA_PBE-JTH.xml
 Pseudopotential format is: paw10
 basis_size (lnmax)=  6 (lmn_size= 18), orbitals=   0   0   1   1   2   2
 Spheres core radius: rc_sph= 2.20669967
 1 radial meshes are used:
  - mesh 1: r(i)=AA*[exp(BB*(i-1))-1], size=1500 , AA= 0.22443E-03 BB= 0.85283E-02
 Shapefunction is SIN type: shapef(r)=[sin(pi*r/rshp)/(pi*r/rshp)]**2
 Radius for shape functions =  1.81361893
 mmax= 1500
 Radial grid used for partial waves is grid 1
 Radial grid used for projectors is grid 1
 Radial grid used for (t)core density is grid 1
 Radial grid used for Vloc is grid 1
 Radial grid used for pseudo valence density is grid 1
 Mesh size for Vloc has been set to 1337 to avoid numerical noise.
 Compensation charge density is not taken into account in XC energy/potential
 pspatm: atomic psp has been read  and splines computed
 
- pspini: atom type   3  psp file is /home/ucl/modl/jbouq/psps_paw_pbe/Li.GGA_PBE-JTH.xml
- pspatm: opening atomic psp file    /home/ucl/modl/jbouq/psps_paw_pbe/Li.GGA_PBE-JTH.xml
- pspatm : Reading pseudopotential header in XML form from /home/ucl/modl/jbouq/psps_paw_pbe/Li.GGA_PBE-JTH.xml
 Pseudopotential format is: paw10
 basis_size (lnmax)=  5 (lmn_size=  9), orbitals=   0   0   0   1   1
 Spheres core radius: rc_sph= 1.60264751
 1 radial meshes are used:
  - mesh 1: r(i)=AA*[exp(BB*(i-1))-1], size=2001 , AA= 0.17851E-02 BB= 0.53552E-02
 Shapefunction is BESSEL type: shapef(r,l)=aa(1,l)*jl(q(1,l)*r)+aa(2,l)*jl(q(2,l)*r)
 Radius for shape functions =  1.30023672
 mmax= 2001
 Radial grid used for partial waves is grid 1
 Radial grid used for projectors is grid 1
 Radial grid used for (t)core density is grid 1
 Radial grid used for Vloc is grid 1
 Radial grid used for pseudo valence density is grid 1
 Mesh size for Vloc has been set to 1742 to avoid numerical noise.
 Compensation charge density is not taken into account in XC energy/potential
 pspatm: atomic psp has been read  and splines computed
 
- pspini: atom type   4  psp file is /home/ucl/modl/jbouq/psps_paw_pbe/Al.GGA_PBE-JTH.xml
- pspatm: opening atomic psp file    /home/ucl/modl/jbouq/psps_paw_pbe/Al.GGA_PBE-JTH.xml
- pspatm : Reading pseudopotential header in XML form from /home/ucl/modl/jbouq/psps_paw_pbe/Al.GGA_PBE-JTH.xml
 Pseudopotential format is: paw10
 basis_size (lnmax)=  4 (lmn_size=  8), orbitals=   0   0   1   1
 Spheres core radius: rc_sph= 1.90363307
 1 radial meshes are used:
  - mesh 1: r(i)=AA*[exp(BB*(i-1))-1], size=2001 , AA= 0.46377E-03 BB= 0.60291E-02
 Shapefunction is SIN type: shapef(r)=[sin(pi*r/rshp)/(pi*r/rshp)]**2
 Radius for shape functions =  1.60786206
 mmax= 2001
 Radial grid used for partial waves is grid 1
 Radial grid used for projectors is grid 1
 Radial grid used for (t)core density is grid 1
 Radial grid used for Vloc is grid 1
 Radial grid used for pseudo valence density is grid 1
 Mesh size for Vloc has been set to 1771 to avoid numerical noise.
 Compensation charge density is not taken into account in XC energy/potential
 pspatm: atomic psp has been read  and splines computed
 
- pspini: atom type   5  psp file is /home/ucl/modl/jbouq/psps_paw_pbe/N.GGA_PBE-JTH.xml
- pspatm: opening atomic psp file    /home/ucl/modl/jbouq/psps_paw_pbe/N.GGA_PBE-JTH.xml
- pspatm : Reading pseudopotential header in XML form from /home/ucl/modl/jbouq/psps_paw_pbe/N.GGA_PBE-JTH.xml
 Pseudopotential format is: paw10
 basis_size (lnmax)=  4 (lmn_size=  8), orbitals=   0   0   1   1
 Spheres core radius: rc_sph= 1.20000000
 1 radial meshes are used:
  - mesh 1: r(i)=AA*[exp(BB*(i-1))-1], size= 787 , AA= 0.19344E-02 BB= 0.13541E-01
 Shapefunction is SIN type: shapef(r)=[sin(pi*r/rshp)/(pi*r/rshp)]**2
 Radius for shape functions =  1.00599851
 mmax=  787
 Radial grid used for partial waves is grid 1
 Radial grid used for projectors is grid 1
 Radial grid used for (t)core density is grid 1
 Radial grid used for Vloc is grid 1
 Radial grid used for pseudo valence density is grid 1
 Mesh size for Vloc has been set to  683 to avoid numerical noise.
 Compensation charge density is not taken into account in XC energy/potential
 pspatm: atomic psp has been read  and splines computed
 
- pspini: atom type   6  psp file is /home/ucl/modl/jbouq/psps_paw_pbe/O.GGA_PBE-JTH.xml
- pspatm: opening atomic psp file    /home/ucl/modl/jbouq/psps_paw_pbe/O.GGA_PBE-JTH.xml
- pspatm : Reading pseudopotential header in XML form from /home/ucl/modl/jbouq/psps_paw_pbe/O.GGA_PBE-JTH.xml
 Pseudopotential format is: paw10
 basis_size (lnmax)=  4 (lmn_size=  8), orbitals=   0   0   1   1
 Spheres core radius: rc_sph= 1.41465230
 1 radial meshes are used:
  - mesh 1: r(i)=AA*[exp(BB*(i-1))-1], size=2001 , AA= 0.72565E-03 BB= 0.58052E-02
 Shapefunction is SIN type: shapef(r)=[sin(pi*r/rshp)/(pi*r/rshp)]**2
 Radius for shape functions =  1.20231231
 mmax= 2001
 Radial grid used for partial waves is grid 1
 Radial grid used for projectors is grid 1
 Radial grid used for (t)core density is grid 1
 Radial grid used for Vloc is grid 1
 Radial grid used for pseudo valence density is grid 1
 Mesh size for Vloc has been set to 1762 to avoid numerical noise.
 Compensation charge density is not taken into account in XC energy/potential
 pspatm: atomic psp has been read  and splines computed
 
   1.43215553E+05                                ecore*ucvol(ha*bohr**3)
--------------------------------------------------------------------------------
 
_setup2: Arith. and geom. avg. npw (full set) are    1848.000    1848.000
 
 
 ******************************************
 DFT+U Method used: FLL
 ******************************************
 
================================================================================
 
=== [ionmov=22] Limited-memory Broyden-Fletcher-Goldfard-Shanno method      
================================================================================
 
--- Iteration: (   1/1000) Internal Cycle: (1/1)
--------------------------------------------------------------------------------
 
---SELF-CONSISTENT-FIELD CONVERGENCE--------------------------------------------

--- !BeginCycle
iteration_state: {dtset: 1, itime: 1, icycle: 1, }
solver: {iscf: 17, nstep: 100, nline: 4, wfoptalg: 114, }
tolerances: {toldff: 1.00E-05, }
...
 
     iter   Etot(hartree)      deltaE(h)  residm     nres2    diffor    maxfor
 ETOT  1  -902.59292680730    -9.026E+02 1.539E-03 2.048E+03 2.800E+00 2.800E+00
 ETOT  2  -936.33461636579    -3.374E+01 9.561E-04 7.105E+03 3.200E+00 3.999E-01
 ETOT  3  -889.18007032734     4.715E+01 1.860E-02 3.884E+02 4.944E-01 9.452E-02
 ETOT  4  -896.65489508187    -7.475E+00 1.107E-02 1.805E+03 2.676E-01 1.731E-01
 ETOT  5  -891.96090029552     4.694E+00 1.243E-03 9.986E+02 8.631E-02 8.680E-02
 ETOT  6  -889.65706607249     2.304E+00 3.221E-04 6.987E+02 5.743E-02 1.079E-01
 ETOT  7  -889.66102451393    -3.958E-03 1.054E-03 4.558E+02 1.591E-01 5.124E-02
 ETOT  8  -889.00327649200     6.577E-01 4.470E-04 7.727E+01 3.803E-02 1.321E-02
 ETOT  9  -889.19150822684    -1.882E-01 2.183E-04 1.265E+02 1.656E-02 1.455E-02
 ETOT 10  -889.40289763275    -2.114E-01 1.063E-03 3.955E+02 5.862E-02 5.526E-02
 ETOT 11  -889.38538820163     1.751E-02 1.941E-04 6.955E+02 1.445E-01 8.920E-02
 ETOT 12  -888.93821582789     4.472E-01 1.202E-03 6.114E+01 1.125E-01 2.331E-02
 ETOT 13  -889.00058231206    -6.237E-02 4.330E-05 6.255E+01 3.262E-03 2.149E-02
 ETOT 14  -889.11239558807    -1.118E-01 2.722E-04 1.935E+02 2.318E-02 4.467E-02
 ETOT 15  -889.15308144944    -4.069E-02 4.405E-04 1.923E+02 2.846E-03 4.752E-02
 ETOT 16  -889.01244669954     1.406E-01 8.865E-05 1.757E+02 5.569E-03 4.195E-02
 ETOT 17  -888.88560358104     1.268E-01 3.973E-05 6.042E+01 2.066E-02 2.129E-02
 ETOT 18  -888.90108092806    -1.548E-02 4.584E-05 5.141E+01 3.458E-02 1.796E-02
 ETOT 19  -888.98008369005    -7.900E-02 1.893E-04 1.380E+02 7.849E-03 2.001E-02
 ETOT 20  -889.05108590735    -7.100E-02 3.895E-04 3.055E+01 1.451E-02 2.124E-02
 ETOT 21  -889.00607658323     4.501E-02 4.959E-04 3.755E+01 1.115E-02 1.698E-02
 ETOT 22  -888.76721049678     2.389E-01 6.877E-04 4.031E+01 1.070E-02 1.949E-02
 ETOT 23  -888.87226597058    -1.051E-01 2.045E-04 2.874E+01 6.932E-03 1.564E-02
 ETOT 24  -888.89781617436    -2.555E-02 1.397E-04 2.714E+01 3.428E-03 1.614E-02
 ETOT 25  -888.87358220280     2.423E-02 8.890E-04 6.922E+00 1.957E-02 1.573E-02
 ETOT 26  -889.07177760206    -1.982E-01 3.239E-04 5.466E+00 2.613E-02 1.731E-02
 ETOT 27  -889.33571043792    -2.639E-01 1.824E-04 3.745E+01 3.408E-02 1.676E-02
 ETOT 28  -889.39704125073    -6.133E-02 1.507E-05 4.106E+01 1.789E-03 1.555E-02
 ETOT 29  -889.36593378357     3.111E-02 4.609E-05 5.284E+01 5.840E-03 2.139E-02
 ETOT 30  -889.24815444917     1.178E-01 5.636E-06 7.084E+01 5.059E-03 2.645E-02
 ETOT 31  -889.31739938124    -6.924E-02 9.677E-06 7.924E+01 2.605E-03 2.905E-02
 ETOT 32  -889.31751399427    -1.146E-04 5.649E-06 5.918E+01 5.075E-03 2.398E-02
 ETOT 33  -889.48907273039    -1.716E-01 1.838E-05 1.728E+02 1.655E-02 4.053E-02
 ETOT 34  -889.43297460725     5.610E-02 6.713E-05 8.631E+01 9.545E-03 3.099E-02
 ETOT 35  -889.32316420058     1.098E-01 7.652E-04 6.243E+02 3.402E-02 6.500E-02
 ETOT 36  -888.55974769462     7.634E-01 1.767E-03 6.788E+01 5.106E-02 1.394E-02
 ETOT 37  -888.84599943322    -2.863E-01 2.374E-04 6.757E+01 3.588E-03 1.747E-02
 ETOT 38  -889.01827413425    -1.723E-01 8.060E-04 1.349E+02 9.786E-03 2.725E-02
 ETOT 39  -889.04545049453    -2.718E-02 1.570E-04 1.164E+02 2.940E-03 2.511E-02
 ETOT 40  -889.28384929057    -2.384E-01 1.762E-04 1.899E+01 2.463E-02 6.460E-03
 ETOT 41  -889.43200576579    -1.482E-01 2.065E-04 1.761E+01 9.197E-03 9.418E-03
 ETOT 42  -889.51067901021    -7.867E-02 2.200E-05 1.790E+01 2.503E-03 1.046E-02
 ETOT 43  -889.55878855619    -4.811E-02 3.511E-05 1.220E+01 1.371E-03 1.053E-02
 ETOT 44  -889.56068257575    -1.894E-03 1.144E-04 9.073E+00 2.415E-03 1.047E-02
 ETOT 45  -889.54585733834     1.483E-02 3.339E-04 6.314E+00 1.866E-03 9.018E-03
 ETOT 46  -889.52620339272     1.965E-02 3.577E-04 2.745E+00 2.635E-03 6.880E-03
 ETOT 47  -889.51427787201     1.193E-02 6.969E-04 8.362E-01 2.080E-03 5.448E-03
 ETOT 48  -889.51618362730    -1.906E-03 8.203E-05 3.429E-02 3.525E-03 5.250E-03
 ETOT 49  -889.51687640800    -6.928E-04 2.570E-05 6.023E-03 8.229E-04 5.105E-03
 ETOT 50  -889.51694113963    -6.473E-05 4.628E-05 3.123E-03 1.966E-04 5.096E-03
 ETOT 51  -889.51694467687    -3.537E-06 3.008E-05 4.673E-04 9.199E-05 5.087E-03
 ETOT 52  -889.51695079466    -6.118E-06 2.326E-05 1.772E-04 6.107E-05 5.087E-03
 ETOT 53  -889.51695459394    -3.799E-06 1.402E-05 6.375E-05 3.428E-05 5.088E-03
 ETOT 54  -889.51695714252    -2.549E-06 1.753E-05 1.371E-05 2.052E-05 5.087E-03
 ETOT 55  -889.51695746109    -3.186E-07 6.988E-06 5.186E-06 5.962E-06 5.087E-03
 ETOT 56  -889.51695760494    -1.438E-07 1.175E-05 1.875E-06 4.471E-06 5.087E-03
 
 At SCF step   56, forces are converged : 
  for the second time, max diff in force=  4.471E-06 < toldff=  1.000E-05
 
 Cartesian components of stress tensor (hartree/bohr^3)
  sigma(1 1)= -7.56187025E-05  sigma(3 2)=  0.00000000E+00
  sigma(2 2)= -7.41031031E-05  sigma(3 1)=  0.00000000E+00
  sigma(3 3)= -1.49694747E-04  sigma(2 1)= -4.84083534E-07
 

--- !ResultsGS
iteration_state: {dtset: 1, itime: 1, icycle: 1, }
comment   : Summary of ground state results
lattice_vectors:
- [ 15.0403302,   0.0000000,   0.0000000, ]
- [  0.0000000,  15.0403302,   0.0000000, ]
- [  0.0000000,   0.0000000,  24.0675519, ]
lattice_lengths: [  15.04033,   15.04033,   24.06755, ]
lattice_angles: [ 90.000,  90.000,  90.000, ] # degrees, (23, 13, 12)
lattice_volume:   5.4443578E+03
convergence: {deltae: -1.438E-07, res2:  1.875E-06, residm:  1.175E-05, diffor:  4.471E-06, }
etotal    :  -8.89516958E+02
entropy   :   0.00000000E+00
fermie    :   2.33192370E-01
cartesian_stress_tensor: # hartree/bohr^3
- [ -7.56187025E-05,  -4.84083534E-07,   0.00000000E+00, ]
- [ -4.84083534E-07,  -7.41031031E-05,   0.00000000E+00, ]
- [  0.00000000E+00,   0.00000000E+00,  -1.49694747E-04, ]
pressure_GPa:   2.9364E+00
xred      :
- [  5.0000E-01,   0.0000E+00,   1.2500E-01, Eu]
- [  5.0000E-01,   0.0000E+00,   3.7500E-01, Sr]
- [  5.0000E-01,   0.0000E+00,   6.2500E-01, Sr]
- [  5.0000E-01,   0.0000E+00,   8.7500E-01, Sr]
- [  0.0000E+00,   5.0000E-01,   0.0000E+00, Sr]
- [  0.0000E+00,   5.0000E-01,   2.5000E-01, Sr]
- [  0.0000E+00,   5.0000E-01,   5.0000E-01, Sr]
- [  0.0000E+00,   5.0000E-01,   7.5000E-01, Sr]
- [  1.3100E-01,   8.2100E-01,   1.2500E-01, Li]
- [  1.3100E-01,   8.2100E-01,   3.7500E-01, Li]
- [  1.3100E-01,   8.2100E-01,   6.2500E-01, Li]
- [  1.3100E-01,   8.2100E-01,   8.7500E-01, Li]
- [  8.6900E-01,   1.7900E-01,   1.2500E-01, Li]
- [  8.6900E-01,   1.7900E-01,   3.7500E-01, Li]
- [  8.6900E-01,   1.7900E-01,   6.2500E-01, Li]
- [  8.6900E-01,   1.7900E-01,   8.7500E-01, Li]
- [  1.7900E-01,   1.3100E-01,   0.0000E+00, Li]
- [  1.7900E-01,   1.3100E-01,   2.5000E-01, Li]
- [  1.7900E-01,   1.3100E-01,   5.0000E-01, Li]
- [  1.7900E-01,   1.3100E-01,   7.5000E-01, Li]
- [  8.2100E-01,   8.6900E-01,   0.0000E+00, Li]
- [  8.2100E-01,   8.6900E-01,   2.5000E-01, Li]
- [  8.2100E-01,   8.6900E-01,   5.0000E-01, Li]
- [  8.2100E-01,   8.6900E-01,   7.5000E-01, Li]
- [  3.5330E-01,   6.8420E-01,   0.0000E+00, Al]
- [  3.5330E-01,   6.8420E-01,   2.5000E-01, Al]
- [  3.5330E-01,   6.8420E-01,   5.0000E-01, Al]
- [  3.5330E-01,   6.8420E-01,   7.5000E-01, Al]
- [  6.4670E-01,   3.1580E-01,   0.0000E+00, Al]
- [  6.4670E-01,   3.1580E-01,   2.5000E-01, Al]
- [  6.4670E-01,   3.1580E-01,   5.0000E-01, Al]
- [  6.4670E-01,   3.1580E-01,   7.5000E-01, Al]
- [  3.1580E-01,   3.5330E-01,   1.2500E-01, Al]
- [  3.1580E-01,   3.5330E-01,   3.7500E-01, Al]
- [  3.1580E-01,   3.5330E-01,   6.2500E-01, Al]
- [  3.1580E-01,   3.5330E-01,   8.7500E-01, Al]
- [  6.8420E-01,   6.4670E-01,   1.2500E-01, Al]
- [  6.8420E-01,   6.4670E-01,   3.7500E-01, Al]
- [  6.8420E-01,   6.4670E-01,   6.2500E-01, Al]
- [  6.8420E-01,   6.4670E-01,   8.7500E-01, Al]
- [  5.8550E-01,   7.2990E-01,   0.0000E+00,  N]
- [  5.8550E-01,   7.2990E-01,   2.5000E-01,  N]
- [  5.8550E-01,   7.2990E-01,   5.0000E-01,  N]
- [  5.8550E-01,   7.2990E-01,   7.5000E-01,  N]
- [  4.1450E-01,   2.7010E-01,   0.0000E+00,  N]
- [  4.1450E-01,   2.7010E-01,   2.5000E-01,  N]
- [  4.1450E-01,   2.7010E-01,   5.0000E-01,  N]
- [  4.1450E-01,   2.7010E-01,   7.5000E-01,  N]
- [  2.7010E-01,   5.8550E-01,   1.2500E-01,  N]
- [  2.7010E-01,   5.8550E-01,   3.7500E-01,  N]
- [  2.7010E-01,   5.8550E-01,   6.2500E-01,  N]
- [  2.7010E-01,   5.8550E-01,   8.7500E-01,  N]
- [  7.2990E-01,   4.1450E-01,   1.2500E-01,  N]
- [  7.2990E-01,   4.1450E-01,   3.7500E-01,  N]
- [  7.2990E-01,   4.1450E-01,   6.2500E-01,  N]
- [  7.2990E-01,   4.1450E-01,   8.7500E-01,  N]
- [  2.5460E-01,   8.9350E-01,   0.0000E+00,  O]
- [  2.5460E-01,   8.9350E-01,   2.5000E-01,  O]
- [  2.5460E-01,   8.9350E-01,   5.0000E-01,  O]
- [  2.5460E-01,   8.9350E-01,   7.5000E-01,  O]
- [  7.4540E-01,   1.0650E-01,   0.0000E+00,  O]
- [  7.4540E-01,   1.0650E-01,   2.5000E-01,  O]
- [  7.4540E-01,   1.0650E-01,   5.0000E-01,  O]
- [  7.4540E-01,   1.0650E-01,   7.5000E-01,  O]
- [  1.0650E-01,   2.5460E-01,   1.2500E-01,  O]
- [  1.0650E-01,   2.5460E-01,   3.7500E-01,  O]
- [  1.0650E-01,   2.5460E-01,   6.2500E-01,  O]
- [  1.0650E-01,   2.5460E-01,   8.7500E-01,  O]
- [  8.9350E-01,   7.4540E-01,   1.2500E-01,  O]
- [  8.9350E-01,   7.4540E-01,   3.7500E-01,  O]
- [  8.9350E-01,   7.4540E-01,   6.2500E-01,  O]
- [  8.9350E-01,   7.4540E-01,   8.7500E-01,  O]
cartesian_forces: # hartree/bohr
- [  4.36692542E-20,   3.61400724E-20,   1.52936504E-21, ]
- [  4.36692542E-20,   3.61400724E-20,   1.39324370E-04, ]
- [  4.36692542E-20,   3.61400724E-20,   1.52936504E-21, ]
- [  4.36692542E-20,   3.61400724E-20,  -1.39324370E-04, ]
- [  4.36692542E-20,   3.61400724E-20,   4.14142308E-05, ]
- [  4.36692542E-20,   3.61400724E-20,  -4.14142308E-05, ]
- [  4.36692542E-20,   3.61400724E-20,   2.98204197E-05, ]
- [  4.36692542E-20,   3.61400724E-20,  -2.98204197E-05, ]
- [ -5.00121877E-03,   3.08954928E-03,   1.52936504E-21, ]
- [ -5.08734610E-03,   3.07435502E-03,   9.52102004E-05, ]
- [ -5.04561270E-03,   3.09248452E-03,   1.52936504E-21, ]
- [ -5.08734610E-03,   3.07435502E-03,  -9.52102004E-05, ]
- [  5.00121877E-03,  -3.08954928E-03,   1.52936504E-21, ]
- [  5.08734610E-03,  -3.07435502E-03,   9.52102004E-05, ]
- [  5.04561270E-03,  -3.09248452E-03,   1.52936504E-21, ]
- [  5.08734610E-03,  -3.07435502E-03,  -9.52102004E-05, ]
- [ -2.98646594E-03,  -5.04266664E-03,   1.35596267E-04, ]
- [ -2.98646594E-03,  -5.04266664E-03,  -1.35596267E-04, ]
- [ -3.07826264E-03,  -5.05621366E-03,   1.02632511E-05, ]
- [ -3.07826264E-03,  -5.05621366E-03,  -1.02632511E-05, ]
- [  2.98646594E-03,   5.04266664E-03,   1.35596267E-04, ]
- [  2.98646594E-03,   5.04266664E-03,  -1.35596267E-04, ]
- [  3.07826264E-03,   5.05621366E-03,   1.02632511E-05, ]
- [  3.07826264E-03,   5.05621366E-03,  -1.02632511E-05, ]
- [  7.89326311E-04,   2.09619957E-03,   3.98917047E-04, ]
- [  7.89326311E-04,   2.09619957E-03,  -3.98917047E-04, ]
- [  6.36082879E-04,   2.11117721E-03,   4.21432821E-05, ]
- [  6.36082879E-04,   2.11117721E-03,  -4.21432821E-05, ]
- [ -7.89326311E-04,  -2.09619957E-03,   3.98917047E-04, ]
- [ -7.89326311E-04,  -2.09619957E-03,  -3.98917047E-04, ]
- [ -6.36082879E-04,  -2.11117721E-03,   4.21432821E-05, ]
- [ -6.36082879E-04,  -2.11117721E-03,  -4.21432821E-05, ]
- [ -2.00123938E-03,   1.03072274E-04,   1.52936504E-21, ]
- [ -2.09967899E-03,   5.83752514E-04,   1.53996040E-04, ]
- [ -2.05634845E-03,   6.00786322E-04,   1.52936504E-21, ]
- [ -2.09967899E-03,   5.83752514E-04,  -1.53996040E-04, ]
- [  2.00123938E-03,  -1.03072274E-04,   1.52936504E-21, ]
- [  2.09967899E-03,  -5.83752514E-04,   1.53996040E-04, ]
- [  2.05634845E-03,  -6.00786322E-04,   1.52936504E-21, ]
- [  2.09967899E-03,  -5.83752514E-04,  -1.53996040E-04, ]
- [ -1.63724277E-03,   7.41153269E-04,  -6.28993685E-04, ]
- [ -1.63724277E-03,   7.41153269E-04,   6.28993685E-04, ]
- [ -1.84639182E-03,   1.42431062E-03,   3.95019315E-06, ]
- [ -1.84639182E-03,   1.42431062E-03,  -3.95019315E-06, ]
- [  1.63724277E-03,  -7.41153269E-04,  -6.28993685E-04, ]
- [  1.63724277E-03,  -7.41153269E-04,   6.28993685E-04, ]
- [  1.84639182E-03,  -1.42431062E-03,   3.95019315E-06, ]
- [  1.84639182E-03,  -1.42431062E-03,  -3.95019315E-06, ]
- [ -1.64687575E-03,  -2.04886798E-03,   1.52936504E-21, ]
- [ -1.51922451E-03,  -1.79946730E-03,  -4.63355507E-05, ]
- [ -1.51357745E-03,  -1.85449928E-03,   1.52936504E-21, ]
- [ -1.51922451E-03,  -1.79946730E-03,   4.63355507E-05, ]
- [  1.64687575E-03,   2.04886798E-03,   1.52936504E-21, ]
- [  1.51922451E-03,   1.79946730E-03,  -4.63355507E-05, ]
- [  1.51357745E-03,   1.85449928E-03,   1.52936504E-21, ]
- [  1.51922451E-03,   1.79946730E-03,   4.63355507E-05, ]
- [  3.18799415E-03,  -1.07689351E-03,  -7.66565147E-04, ]
- [  3.18799415E-03,  -1.07689351E-03,   7.66565147E-04, ]
- [  4.29251181E-03,  -8.46290754E-04,  -2.44048316E-05, ]
- [  4.29251181E-03,  -8.46290754E-04,   2.44048316E-05, ]
- [ -3.18799415E-03,   1.07689351E-03,  -7.66565147E-04, ]
- [ -3.18799415E-03,   1.07689351E-03,   7.66565147E-04, ]
- [ -4.29251181E-03,   8.46290754E-04,  -2.44048316E-05, ]
- [ -4.29251181E-03,   8.46290754E-04,   2.44048316E-05, ]
- [  5.95083026E-04,   4.44637343E-03,   1.52936504E-21, ]
- [  7.86351664E-04,   4.35136470E-03,  -1.38764991E-05, ]
- [  7.91870265E-04,   4.36921237E-03,   1.52936504E-21, ]
- [  7.86351664E-04,   4.35136470E-03,   1.38764991E-05, ]
- [ -5.95083026E-04,  -4.44637343E-03,   1.52936504E-21, ]
- [ -7.86351664E-04,  -4.35136470E-03,  -1.38764991E-05, ]
- [ -7.91870265E-04,  -4.36921237E-03,   1.52936504E-21, ]
- [ -7.86351664E-04,  -4.35136470E-03,   1.38764991E-05, ]
force_length_stats: {min:   5.67049165E-20, max:   5.94489816E-03, mean:   3.23792637E-03, }
...

 Integrated electronic and magnetization densities in atomic spheres:
 ---------------------------------------------------------------------
 Radius=ratsph(iatom), smearing ratsm=  0.0000. Diff(up-dn)=approximate z local magnetic moment.
 Atom    Radius    up_density   dn_density  Total(up+dn)  Diff(up-dn)
    1   2.52170    10.802839     3.925322     14.728161     6.877518
    2   2.20670     3.676766     3.674359      7.351125     0.002407
    3   2.20670     3.675206     3.675002      7.350208     0.000204
    4   2.20670     3.676758     3.674358      7.351116     0.002400
    5   2.20670     3.671455     3.671274      7.342729     0.000182
    6   2.20670     3.671964     3.671782      7.343746     0.000182
    7   2.20670     3.671350     3.671307      7.342657     0.000043
    8   2.20670     3.671858     3.671815      7.343673     0.000043
    9   1.60265     1.058643     1.058596      2.117239     0.000048
   10   1.60265     1.058575     1.058699      2.117274    -0.000124
   11   1.60265     1.058652     1.058648      2.117301     0.000004
   12   1.60265     1.058576     1.058699      2.117275    -0.000123
   13   1.60265     1.058643     1.058596      2.117239     0.000048
   14   1.60265     1.058575     1.058699      2.117274    -0.000124
   15   1.60265     1.058652     1.058648      2.117301     0.000004
   16   1.60265     1.058576     1.058699      2.117275    -0.000123
   17   1.60265     1.059006     1.058862      2.117869     0.000144
   18   1.60265     1.058705     1.058564      2.117270     0.000141
   19   1.60265     1.058938     1.058935      2.117873     0.000003
   20   1.60265     1.058639     1.058636      2.117275     0.000003
   21   1.60265     1.059006     1.058862      2.117869     0.000144
   22   1.60265     1.058705     1.058564      2.117270     0.000141
   23   1.60265     1.058938     1.058935      2.117873     0.000003
   24   1.60265     1.058639     1.058636      2.117275     0.000003
   25   1.90363     0.455733     0.455446      0.911179     0.000287
   26   1.90363     0.460438     0.460156      0.920594     0.000282
   27   1.90363     0.455654     0.455663      0.911316    -0.000009
   28   1.90363     0.460365     0.460374      0.920739    -0.000009
   29   1.90363     0.455733     0.455446      0.911179     0.000287
   30   1.90363     0.460438     0.460156      0.920594     0.000282
   31   1.90363     0.455654     0.455663      0.911316    -0.000009
   32   1.90363     0.460365     0.460374      0.920739    -0.000009
   33   1.90363     0.459035     0.458635      0.917670     0.000400
   34   1.90363     0.458759     0.459087      0.917846    -0.000328
   35   1.90363     0.458942     0.458922      0.917864     0.000019
   36   1.90363     0.458763     0.459085      0.917848    -0.000321
   37   1.90363     0.459035     0.458635      0.917670     0.000400
   38   1.90363     0.458759     0.459087      0.917846    -0.000328
   39   1.90363     0.458942     0.458922      0.917864     0.000019
   40   1.90363     0.458763     0.459085      0.917848    -0.000321
   41   1.20000     1.278472     1.283809      2.562280    -0.005337
   42   1.20000     1.274467     1.279801      2.554267    -0.005334
   43   1.20000     1.281291     1.281283      2.562573     0.000008
   44   1.20000     1.277285     1.277277      2.554562     0.000008
   45   1.20000     1.278472     1.283809      2.562280    -0.005337
   46   1.20000     1.274467     1.279801      2.554267    -0.005334
   47   1.20000     1.281291     1.281283      2.562573     0.000008
   48   1.20000     1.277285     1.277277      2.554562     0.000008
   49   1.20000     1.287987     1.287706      2.575693     0.000280
   50   1.20000     1.287673     1.288029      2.575702    -0.000356
   51   1.20000     1.287851     1.287859      2.575711    -0.000008
   52   1.20000     1.287673     1.288029      2.575701    -0.000356
   53   1.20000     1.287987     1.287706      2.575693     0.000280
   54   1.20000     1.287673     1.288029      2.575702    -0.000356
   55   1.20000     1.287851     1.287859      2.575711    -0.000008
   56   1.20000     1.287673     1.288029      2.575701    -0.000356
   57   1.41465     2.284368     2.291849      4.576218    -0.007481
   58   1.41465     2.290729     2.298228      4.588957    -0.007499
   59   1.41465     2.288372     2.288425      4.576797    -0.000053
   60   1.41465     2.294745     2.294798      4.589543    -0.000053
   61   1.41465     2.284368     2.291849      4.576218    -0.007481
   62   1.41465     2.290729     2.298228      4.588957    -0.007499
   63   1.41465     2.288372     2.288425      4.576797    -0.000053
   64   1.41465     2.294745     2.294798      4.589543    -0.000053
   65   1.41465     2.288201     2.288120      4.576321     0.000080
   66   1.41465     2.288162     2.288250      4.576412    -0.000088
   67   1.41465     2.288200     2.288230      4.576430    -0.000031
   68   1.41465     2.288162     2.288250      4.576412    -0.000088
   69   1.41465     2.288201     2.288120      4.576321     0.000080
   70   1.41465     2.288162     2.288250      4.576412    -0.000088
   71   1.41465     2.288200     2.288230      4.576430    -0.000031
   72   1.41465     2.288162     2.288250      4.576412    -0.000088
 ---------------------------------------------------------------------
  Sum:            117.940318   111.109121    229.049439     6.831197
 Total magnetization (from the atomic spheres):             6.831197
 Total magnetization (exact up - dn):                       6.999987
 
 PAW TEST:
 ==== Compensation charge inside spheres ============
 The following values must be close to each other ...
 Compensation charge over spherical meshes =     28.800189285787635
 Compensation charge over fine fft grid    =     28.800886820998869
 
 ==== Results concerning PAW augmentation regions ====
 
 Total pseudopotential strength Dij (hartree):
 Atom #  1 - Spin component 1
  -0.74784  -0.07662   0.00000   0.00000   0.00000   0.00000   0.00000   0.00000  -0.00003   0.00000   0.00006   0.00000 ...
  -0.07662  -0.09202   0.00000   0.00000   0.00000   0.00000   0.00000   0.00000  -0.00000   0.00000   0.00001   0.00000 ...
   0.00000   0.00000  -0.71989   0.00000   0.00005   0.14814   0.00000  -0.00020   0.00000   0.00000   0.00000   0.00000 ...
   0.00000   0.00000   0.00000  -0.72001   0.00000   0.00000   0.14863   0.00000   0.00000   0.00000   0.00000   0.00000 ...
   0.00000   0.00000   0.00005   0.00000  -0.71970  -0.00020   0.00000   0.14754   0.00000   0.00000   0.00000   0.00000 ...
   0.00000   0.00000   0.14814   0.00000  -0.00020   0.88681   0.00000   0.00007   0.00000   0.00000   0.00000   0.00000 ...
   0.00000   0.00000   0.00000   0.14863   0.00000   0.00000   0.88668   0.00000   0.00000   0.00000   0.00000   0.00000 ...
   0.00000   0.00000  -0.00020   0.00000   0.14754   0.00007   0.00000   0.88700   0.00000   0.00000   0.00000   0.00000 ...
  -0.00003  -0.00000   0.00000   0.00000   0.00000   0.00000   0.00000   0.00000  -0.18720   0.00000   0.00000   0.00000 ...
   0.00000   0.00000   0.00000   0.00000   0.00000   0.00000   0.00000   0.00000   0.00000  -0.18720   0.00000  -0.00000 ...
   0.00006   0.00001   0.00000   0.00000   0.00000   0.00000   0.00000   0.00000   0.00000   0.00000  -0.18720   0.00000 ...
   0.00000   0.00000   0.00000   0.00000   0.00000   0.00000   0.00000   0.00000   0.00000  -0.00000   0.00000  -0.18720 ...
   ...  only 12  components have been written...
 Atom #  1 - Spin component 2
  -0.66860  -0.06745   0.00000   0.00000   0.00000   0.00000   0.00000   0.00000   0.00001   0.00000   0.00001   0.00000 ...
  -0.06745  -0.09110   0.00000   0.00000   0.00000   0.00000   0.00000   0.00000   0.00001   0.00000  -0.00001   0.00000 ...
   0.00000   0.00000  -0.65408   0.00000   0.00013   0.07767   0.00000  -0.00026   0.00000   0.00000   0.00000   0.00000 ...
   0.00000   0.00000   0.00000  -0.65428   0.00000   0.00000   0.07822   0.00000   0.00000   0.00000   0.00000   0.00000 ...
   0.00000   0.00000   0.00013   0.00000  -0.65371  -0.00026   0.00000   0.07691   0.00000   0.00000   0.00000   0.00000 ...
   0.00000   0.00000   0.07767   0.00000  -0.00026   0.95787   0.00000   0.00014   0.00000   0.00000   0.00000   0.00000 ...
   0.00000   0.00000   0.00000   0.07822   0.00000   0.00000   0.95769   0.00000   0.00000   0.00000   0.00000   0.00000 ...
   0.00000   0.00000  -0.00026   0.00000   0.07691   0.00014   0.00000   0.95827   0.00000   0.00000   0.00000   0.00000 ...
   0.00001   0.00001   0.00000   0.00000   0.00000   0.00000   0.00000   0.00000  -0.17258   0.00000  -0.00001   0.00000 ...
   0.00000   0.00000   0.00000   0.00000   0.00000   0.00000   0.00000   0.00000   0.00000  -0.17255   0.00000   0.00001 ...
   0.00001  -0.00001   0.00000   0.00000   0.00000   0.00000   0.00000   0.00000  -0.00001   0.00000  -0.17268   0.00000 ...
   0.00000   0.00000   0.00000   0.00000   0.00000   0.00000   0.00000   0.00000   0.00000   0.00001   0.00000  -0.17251 ...
   ...  only 12  components have been written...
 Atom # 72 - Spin component 1
   0.61006  -1.74325   0.00033  -0.00000   0.00068  -0.00233   0.00000  -0.00480
  -1.74325   5.04260  -0.00089   0.00000  -0.00183   0.00637  -0.00001   0.01307
   0.00033  -0.00089  -0.29590  -0.00000  -0.00028   0.89692   0.00000   0.00148
  -0.00000   0.00000  -0.00000  -0.29564   0.00000   0.00000   0.89552  -0.00000
   0.00068  -0.00183  -0.00028   0.00000  -0.29636   0.00148  -0.00000   0.89936
  -0.00233   0.00637   0.89692   0.00000   0.00148   0.08878  -0.00001  -0.00752
   0.00000  -0.00001   0.00000   0.89552  -0.00000  -0.00001   0.09618   0.00001
  -0.00480   0.01307   0.00148  -0.00000   0.89936  -0.00752   0.00001   0.07661
 Atom # 72 - Spin component 2
   0.61006  -1.74325   0.00033  -0.00000   0.00068  -0.00233   0.00000  -0.00480
  -1.74325   5.04258  -0.00089   0.00000  -0.00183   0.00638  -0.00000   0.01307
   0.00033  -0.00089  -0.29590  -0.00000  -0.00028   0.89693   0.00000   0.00149
  -0.00000   0.00000  -0.00000  -0.29565   0.00000   0.00000   0.89554  -0.00000
   0.00068  -0.00183  -0.00028   0.00000  -0.29637   0.00149  -0.00000   0.89937
  -0.00233   0.00638   0.89693   0.00000   0.00149   0.08871  -0.00001  -0.00752
   0.00000  -0.00000   0.00000   0.89554  -0.00000  -0.00001   0.09610   0.00001
  -0.00480   0.01307   0.00149  -0.00000   0.89937  -0.00752   0.00001   0.07653
 
 
 Augmentation waves occupancies Rhoij:
 Atom #  1 - Spin component 1
   0.99409  -0.00114   0.00000   0.00000   0.00000   0.00000   0.00000   0.00000  -0.00077   0.00000   0.00025   0.00000 ...
  -0.00114   0.12733   0.00000   0.00000   0.00000   0.00000   0.00000   0.00000  -0.00025   0.00000   0.00304   0.00000 ...
   0.00000   0.00000   0.99845   0.00000   0.00062   0.01483   0.00000  -0.00044   0.00000   0.00000   0.00000   0.00000 ...
   0.00000   0.00000   0.00000   0.99728   0.00000   0.00000   0.01585   0.00000   0.00000   0.00000   0.00000   0.00000 ...
   0.00000   0.00000   0.00062   0.00000   0.99863  -0.00044   0.00000   0.01481   0.00000   0.00000   0.00000   0.00000 ...
   0.00000   0.00000   0.01483   0.00000  -0.00044   0.00477   0.00000   0.00008   0.00000   0.00000   0.00000   0.00000 ...
   0.00000   0.00000   0.00000   0.01585   0.00000   0.00000   0.00463   0.00000   0.00000   0.00000   0.00000   0.00000 ...
   0.00000   0.00000  -0.00044   0.00000   0.01481   0.00008   0.00000   0.00419   0.00000   0.00000   0.00000   0.00000 ...
  -0.00077  -0.00025   0.00000   0.00000   0.00000   0.00000   0.00000   0.00000   0.03301   0.00000   0.00019   0.00000 ...
   0.00000   0.00000   0.00000   0.00000   0.00000   0.00000   0.00000   0.00000   0.00000   0.05613   0.00000  -0.00053 ...
   0.00025   0.00304   0.00000   0.00000   0.00000   0.00000   0.00000   0.00000   0.00019   0.00000   0.01531   0.00000 ...
   0.00000   0.00000   0.00000   0.00000   0.00000   0.00000   0.00000   0.00000   0.00000  -0.00053   0.00000   0.05038 ...
   ...  only 12  components have been written...
 Atom #  1 - Spin component 2
   0.92923   0.13437   0.00000   0.00000   0.00000   0.00000   0.00000   0.00000  -0.00119   0.00000   0.00095   0.00000 ...
   0.13437   0.12439   0.00000   0.00000   0.00000   0.00000   0.00000   0.00000   0.00005   0.00000   0.00216   0.00000 ...
   0.00000   0.00000   0.98522   0.00000   0.00074   0.03768   0.00000  -0.00041   0.00000   0.00000   0.00000   0.00000 ...
   0.00000   0.00000   0.00000   0.98355   0.00000   0.00000   0.03877   0.00000   0.00000   0.00000   0.00000   0.00000 ...
   0.00000   0.00000   0.00074   0.00000   0.98538  -0.00041   0.00000   0.03772   0.00000   0.00000   0.00000   0.00000 ...
   0.00000   0.00000   0.03768   0.00000  -0.00041   0.00516   0.00000   0.00005   0.00000   0.00000   0.00000   0.00000 ...
   0.00000   0.00000   0.00000   0.03877   0.00000   0.00000   0.00506   0.00000   0.00000   0.00000   0.00000   0.00000 ...
   0.00000   0.00000  -0.00041   0.00000   0.03772   0.00005   0.00000   0.00467   0.00000   0.00000   0.00000   0.00000 ...
  -0.00119   0.00005   0.00000   0.00000   0.00000   0.00000   0.00000   0.00000   0.02306   0.00000   0.00020   0.00000 ...
   0.00000   0.00000   0.00000   0.00000   0.00000   0.00000   0.00000   0.00000   0.00000   0.03961   0.00000  -0.00002 ...
   0.00095   0.00216   0.00000   0.00000   0.00000   0.00000   0.00000   0.00000   0.00020   0.00000   0.01038   0.00000 ...
   0.00000   0.00000   0.00000   0.00000   0.00000   0.00000   0.00000   0.00000   0.00000  -0.00002   0.00000   0.03560 ...
   ...  only 12  components have been written...
 Atom # 72 - Spin component 1
   0.98064   0.01480   0.00110  -0.00000  -0.00023  -0.00065  -0.00000  -0.00152
   0.01480   0.00039  -0.00217  -0.00000  -0.00449  -0.00010   0.00000  -0.00017
   0.00110  -0.00217   0.91485  -0.00002   0.00449   0.02064  -0.00000   0.00126
  -0.00000  -0.00000  -0.00002   0.93141   0.00003  -0.00000   0.02042   0.00000
  -0.00023  -0.00449   0.00449   0.00003   0.93178   0.00126   0.00000   0.02306
  -0.00065  -0.00010   0.02064  -0.00000   0.00126   0.00049   0.00000   0.00006
  -0.00000   0.00000  -0.00000   0.02042   0.00000   0.00000   0.00047  -0.00000
  -0.00152  -0.00017   0.00126   0.00000   0.02306   0.00006  -0.00000   0.00061
 Atom # 72 - Spin component 2
   0.98063   0.01480   0.00109  -0.00001  -0.00021  -0.00065   0.00000  -0.00152
   0.01480   0.00039  -0.00217   0.00000  -0.00450  -0.00010   0.00000  -0.00017
   0.00109  -0.00217   0.91490  -0.00002   0.00450   0.02064   0.00000   0.00126
  -0.00001   0.00000  -0.00002   0.93147   0.00001   0.00000   0.02042  -0.00000
  -0.00021  -0.00450   0.00450   0.00001   0.93184   0.00126  -0.00000   0.02306
  -0.00065  -0.00010   0.02064   0.00000   0.00126   0.00049   0.00000   0.00006
   0.00000   0.00000   0.00000   0.02042  -0.00000   0.00000   0.00047  -0.00000
  -0.00152  -0.00017   0.00126  -0.00000   0.02306   0.00006  -0.00000   0.00061
 
 "PAW+U" part of augmentation waves occupancies Rhoij:
 Atom #  1 - L=3 ONLY - Spin component 1
   1.21217   0.00000   0.00101   0.00000   0.00134   0.00000   0.00109   0.07449   0.00000   0.00041   0.00000   0.00128   0.00000   0.00095
   0.00000   1.20891   0.00000   0.00023   0.00000  -0.00751   0.00000   0.00000   0.07411   0.00000  -0.00045   0.00000  -0.00145   0.00000
   0.00101   0.00000   1.22130   0.00000  -0.00149   0.00000  -0.00145   0.00041   0.00000   0.07871   0.00000  -0.00068   0.00000  -0.00018
   0.00000   0.00023   0.00000   1.22409   0.00000   0.00348   0.00000   0.00000  -0.00042   0.00000   0.08079   0.00000   0.00156   0.00000
   0.00134   0.00000  -0.00149   0.00000   1.21419   0.00000   0.00338   0.00129   0.00000  -0.00068   0.00000   0.07497   0.00000   0.00195
   0.00000  -0.00751   0.00000   0.00348   0.00000   1.20616   0.00000   0.00000  -0.00145   0.00000   0.00152   0.00000   0.07313   0.00000
   0.00109   0.00000  -0.00145   0.00000   0.00338   0.00000   1.21591   0.00096   0.00000  -0.00018   0.00000   0.00197   0.00000   0.07645
   0.07449   0.00000   0.00041   0.00000   0.00129   0.00000   0.00096   0.00658   0.00000   0.00007   0.00000   0.00055   0.00000  -0.00000
   0.00000   0.07411   0.00000  -0.00042   0.00000  -0.00145   0.00000   0.00000   0.00875   0.00000  -0.00038   0.00000   0.00258   0.00000
   0.00041   0.00000   0.07871   0.00000  -0.00068   0.00000  -0.00018   0.00007   0.00000   0.00709   0.00000   0.00019   0.00000   0.00015
   0.00000  -0.00045   0.00000   0.08079   0.00000   0.00152   0.00000   0.00000  -0.00038   0.00000   0.00736   0.00000   0.00043   0.00000
   0.00128   0.00000  -0.00068   0.00000   0.07497   0.00000   0.00197   0.00055   0.00000   0.00019   0.00000   0.00678   0.00000   0.00030
   0.00000  -0.00145   0.00000   0.00156   0.00000   0.07313   0.00000   0.00000   0.00258   0.00000   0.00043   0.00000   0.00914   0.00000
   0.00095   0.00000  -0.00018   0.00000   0.00195   0.00000   0.07645  -0.00000   0.00000   0.00015   0.00000   0.00030   0.00000   0.00661
[...]
                       2.5384831047E+00  2.8384633397E+00  1.1243342970E+01
                       5.4919312078E+00  5.1950835214E+00  1.6064520240E+00
                       5.4929463011E+00  5.1929035882E+00  4.8211772697E+00
                       5.4930861384E+00  5.1933868812E+00  8.0322601200E+00
                       5.4929463011E+00  5.1929035882E+00  1.1243342970E+01
                       4.6978004701E+00  5.8583626766E+00 -1.9141501225E-03
                       4.6978004701E+00  5.8583626766E+00  3.2148181981E+00
                       4.6990215655E+00  5.8605170227E+00  6.4265129545E+00
                       4.6990215655E+00  5.8605170227E+00  9.6380072856E+00
                       3.3336289357E+00  2.1730042513E+00 -1.9141501225E-03
                       3.3336289357E+00  2.1730042513E+00  3.2148181981E+00
                       3.3324078403E+00  2.1708499052E+00  6.4265129545E+00
                       3.3324078403E+00  2.1708499052E+00  9.6380072856E+00
                       2.1752377887E+00  4.6934176006E+00  1.6064520240E+00
                       2.1755122442E+00  4.6947262126E+00  4.8203563164E+00
                       2.1756741971E+00  4.6946858405E+00  8.0322601200E+00
                       2.1755122442E+00  4.6947262126E+00  1.1244163924E+01
                       5.8561916171E+00  3.3379493274E+00  1.6064520240E+00
                       5.8559171616E+00  3.3366407153E+00  4.8203563164E+00
                       5.8557552087E+00  3.3366810874E+00  8.0322601200E+00
                       5.8559171616E+00  3.3366407153E+00  1.1244163924E+01
                       2.0565788172E+00  7.1572216326E+00 -4.0667076807E-03
                       2.0565788172E+00  7.1572216326E+00  3.2169707557E+00
                       2.0666318962E+00  7.1605407110E+00  6.4265354062E+00
                       2.0666318962E+00  7.1605407110E+00  9.6379848338E+00
                       5.9748505886E+00  8.7414529535E-01 -4.0667076807E-03
                       5.9748505886E+00  8.7414529535E-01  3.2169707557E+00
                       5.9647975096E+00  8.7082621689E-01  6.4265354062E+00
                       5.9647975096E+00  8.7082621689E-01  9.6379848338E+00
                       8.6824821971E-01  2.0600565396E+00  1.6064520240E+00
                       8.6799065426E-01  2.0605749454E+00  4.8202262907E+00
                       8.6722666720E-01  2.0601317613E+00  8.0322601200E+00
                       8.6799065426E-01  2.0605749454E+00  1.1244293949E+01
                       7.1631811861E+00  5.9713103883E+00  1.6064520240E+00
                       7.1634387515E+00  5.9707919825E+00  4.8202262907E+00
                       7.1642027386E+00  5.9712351666E+00  8.0322601200E+00
                       7.1634387515E+00  5.9707919825E+00  1.1244293949E+01
            xcart      7.5695224642E+00  1.9078552090E-02  3.0357543710E+00
                       7.5695224642E+00  1.9078552090E-02  9.1104218760E+00
                       7.5695224642E+00  1.9078552090E-02  1.5178771855E+01
                       7.5695224642E+00  1.9078552090E-02  2.1247121834E+01
                       1.9078552090E-02  7.5694634311E+00 -3.8201716752E-04
                       1.9078552090E-02  7.5694634311E+00  6.0718907592E+00
                       1.9078552090E-02  7.5694634311E+00  1.2143752012E+01
                       1.9078552090E-02  7.5694634311E+00  1.8213791698E+01
                       1.9307800280E+00  1.2461515459E+01  3.0357543710E+00
                       1.9323761427E+00  1.2460221888E+01  9.1128638977E+00
                       1.9369326587E+00  1.2462813200E+01  1.5178771855E+01
                       1.9323761427E+00  1.2460221888E+01  2.1244679812E+01
                       1.3246422005E+01  2.7155685077E+00  3.0357543710E+00
                       1.3244825890E+01  2.7168620780E+00  9.1128638977E+00
                       1.3240269374E+01  2.7142707660E+00  1.5178771855E+01
                       1.3244825890E+01  2.7168620780E+00  2.1244679812E+01
                       2.6824389280E+00  1.9189346478E+00 -7.8996541180E-04
                       2.6824389280E+00  1.9189346478E+00  6.0722987074E+00
                       2.6868790549E+00  1.9203233162E+00  1.2143872103E+01
                       2.6868790549E+00  1.9203233162E+00  1.8213671606E+01
                       1.2494763105E+01  1.3258149319E+01 -7.8996541180E-04
                       1.2494763105E+01  1.3258149319E+01  6.0722987074E+00
                       1.2490322978E+01  1.3256760650E+01  1.2143872103E+01
                       1.2490322978E+01  1.3256760650E+01  1.8213671606E+01
                       5.3676320164E+00  1.0374409711E+01 -5.3649264605E-05
                       5.3676320164E+00  1.0374409711E+01  6.0715623912E+00
                       5.3715167593E+00  1.0375048040E+01  1.2143599110E+01
                       5.3715167593E+00  1.0375048040E+01  1.8213944600E+01
                       9.8095700161E+00  4.8026742554E+00 -5.3649264605E-05
                       9.8095700161E+00  4.8026742554E+00  6.0715623912E+00
                       9.8056852732E+00  4.8020359263E+00  1.2143599110E+01
                       9.8056852732E+00  4.8020359263E+00  1.8213944600E+01
                       4.7989561092E+00  5.3597988736E+00  3.0357543710E+00
                       4.7970378609E+00  5.3639183503E+00  9.1107046779E+00
                       4.7967736067E+00  5.3630050588E+00  1.5178771855E+01
                       4.7970378609E+00  5.3639183503E+00  2.1246839032E+01
                       1.0378245923E+01  9.8172850929E+00  3.0357543710E+00
                       1.0380164172E+01  9.8131656162E+00  9.1107046779E+00
                       1.0380428426E+01  9.8140789076E+00  1.5178771855E+01
                       1.0380164172E+01  9.8131656162E+00  2.1246839032E+01
                       8.8775563154E+00  1.1070701046E+01 -3.6172195088E-03
                       8.8775563154E+00  1.1070701046E+01  6.0751259615E+00
                       8.8798638512E+00  1.1074772170E+01  1.2144349473E+01
                       8.8798638512E+00  1.1074772170E+01  1.8213194236E+01
                       6.2996457171E+00  4.1063829206E+00 -3.6172195088E-03
                       6.2996457171E+00  4.1063829206E+00  6.0751259615E+00
                       6.2973381813E+00  4.1023117965E+00  1.2144349473E+01
                       6.2973381813E+00  4.1023117965E+00  1.8213194236E+01
                       4.1106036946E+00  8.8692738923E+00  3.0357543710E+00
                       4.1111223402E+00  8.8717468107E+00  9.1091533009E+00
                       4.1114283869E+00  8.8716705185E+00  1.5178771855E+01
                       4.1111223402E+00  8.8717468107E+00  2.1248390409E+01
                       1.1066598338E+01  6.3078100742E+00  3.0357543710E+00
                       1.1066079692E+01  6.3053371558E+00  9.1091533009E+00
                       1.1065773646E+01  6.3054134480E+00  1.5178771855E+01
                       1.1066079692E+01  6.3053371558E+00  2.1248390409E+01
                       3.8863707352E+00  1.3525188758E+01 -7.6849637790E-03
                       3.8863707352E+00  1.3525188758E+01  6.0791937058E+00
                       3.9053683014E+00  1.3531460907E+01  1.2144391901E+01
                       3.9053683014E+00  1.3531460907E+01  1.8213151809E+01
                       1.1290831297E+01  1.6518952086E+00 -7.6849637790E-03
                       1.1290831297E+01  1.6518952086E+00  6.0791937058E+00
                       1.1271833731E+01  1.6456230593E+00  1.2144391901E+01
                       1.1271833731E+01  1.6456230593E+00  1.8213151809E+01
                       1.6407513506E+00  3.8929426782E+00  3.0357543710E+00
                       1.6402646225E+00  3.8939223231E+00  9.1089075880E+00
                       1.6388208961E+00  3.8930848266E+00  1.5178771855E+01
                       1.6402646225E+00  3.8939223231E+00  2.1248636122E+01
                       1.3536450682E+01  1.1284141288E+01  3.0357543710E+00
                       1.3536937410E+01  1.1283161643E+01  9.1089075880E+00
                       1.3538381136E+01  1.1283999140E+01  1.5178771855E+01
                       1.3536937410E+01  1.1283161643E+01  2.1248636122E+01
             xred      5.0000000000E-01 -2.4329327025E-20  1.2500000000E-01
                       5.0000000000E-01 -2.4329327025E-20  3.7513006499E-01
                       5.0000000000E-01 -2.4329327025E-20  6.2500000000E-01
                       5.0000000000E-01 -2.4329327024E-20  8.7486993501E-01
                       3.7641279810E-20  5.0000000000E-01 -1.5729910956E-05
                       3.7641279810E-20  5.0000000000E-01  2.5001572991E-01
                       3.7641279810E-20  5.0000000000E-01  5.0003024485E-01
                       3.7641279810E-20  5.0000000000E-01  7.4996975515E-01
                       1.2546255825E-01  8.2282768681E-01  1.2500000000E-01
                       1.2556820463E-01  8.2274197390E-01  3.7523061750E-01
                       1.2586875289E-01  8.2291238518E-01  6.2500000000E-01
                       1.2556820463E-01  8.2274197390E-01  8.7476938250E-01
                       8.7453744175E-01  1.7717231319E-01  1.2500000000E-01
                       8.7443179537E-01  1.7725802610E-01  3.7523061750E-01
                       8.7413124711E-01  1.7708761482E-01  6.2500000000E-01
                       8.7443179537E-01  1.7725802610E-01  8.7476938250E-01
                       1.7686844494E-01  1.2630920788E-01 -3.2527558032E-05
                       1.7686844494E-01  1.2630920788E-01  2.5003252756E-01
                       1.7716150537E-01  1.2640019756E-01  5.0003518975E-01
                       1.7716150537E-01  1.2640019756E-01  7.4996481025E-01
                       8.2313155506E-01  8.7369079212E-01 -3.2527558032E-05
                       8.2313155506E-01  8.7369079212E-01  2.5003252756E-01
                       8.2283849463E-01  8.7359980244E-01  5.0003518975E-01
                       8.2283849463E-01  8.7359980244E-01  7.4996481025E-01
                       3.5283055565E-01  6.8439109410E-01 -2.2090581965E-06
                       3.5283055565E-01  6.8439109410E-01  2.5000220906E-01
                       3.5308705523E-01  6.8443261235E-01  5.0002394899E-01
                       3.5308705523E-01  6.8443261235E-01  7.4997605101E-01
                       6.4716944435E-01  3.1560890590E-01 -2.2090581965E-06
                       6.4716944435E-01  3.1560890590E-01  2.5000220906E-01
                       6.4691294477E-01  3.1556738765E-01  5.0002394899E-01
                       6.4691294477E-01  3.1556738765E-01  7.4997605101E-01
                       3.1610166679E-01  3.5324414987E-01  1.2500000000E-01
                       3.1597427146E-01  3.5351658250E-01  3.7514170963E-01
                       3.1595696826E-01  3.5345629876E-01  6.2500000000E-01
                       3.1597427146E-01  3.5351658250E-01  8.7485829037E-01
                       6.8389833321E-01  6.4675585013E-01  1.2500000000E-01
                       6.8402572854E-01  6.4648341750E-01  3.7514170963E-01
                       6.8404303174E-01  6.4654370124E-01  6.2500000000E-01
                       6.8402572854E-01  6.4648341750E-01  8.7485829037E-01
                       5.8456192481E-01  7.2980046446E-01 -1.4894236600E-04
                       5.8456192481E-01  7.2980046446E-01  2.5014894237E-01
                       5.8471367079E-01  7.3006899961E-01  5.0005484590E-01
                       5.8471367079E-01  7.3006899961E-01  7.4994515410E-01
                       4.1543807519E-01  2.7019953554E-01 -1.4894236600E-04
                       4.1543807519E-01  2.7019953554E-01  2.5014894237E-01
                       4.1528632921E-01  2.6993100039E-01  5.0005484590E-01
                       4.1528632921E-01  2.6993100039E-01  7.4994515410E-01
                       2.7004840855E-01  5.8517817727E-01  1.2500000000E-01
                       2.7008225586E-01  5.8534144028E-01  3.7507783024E-01
                       2.7010248441E-01  5.8533634983E-01  6.2500000000E-01
                       2.7008225586E-01  5.8534144028E-01  8.7492216976E-01
                       7.2995159145E-01  4.1482182273E-01  1.2500000000E-01
                       7.2991774414E-01  4.1465855972E-01  3.7507783024E-01
                       7.2989751559E-01  4.1466365017E-01  6.2500000000E-01
                       7.2991774414E-01  4.1465855972E-01  8.7492216976E-01
                       2.5446159179E-01  8.9276336185E-01 -3.1643550662E-04
                       2.5446159179E-01  8.9276336185E-01  2.5031643551E-01
                       2.5571542769E-01  8.9317450768E-01  5.0005659290E-01
                       2.5571542769E-01  8.9317450768E-01  7.4994340710E-01
                       7.4553840821E-01  1.0723663815E-01 -3.1643550662E-04
                       7.4553840821E-01  1.0723663815E-01  2.5031643551E-01
                       7.4428457231E-01  1.0682549232E-01  5.0005659290E-01
                       7.4428457231E-01  1.0682549232E-01  7.4994340710E-01
                       1.0773134643E-01  2.5687632930E-01  1.2500000000E-01
                       1.0769903260E-01  2.5694112108E-01  3.7506771278E-01
                       1.0760380701E-01  2.5688604036E-01  6.2500000000E-01
                       1.0769903260E-01  2.5694112108E-01  8.7493228722E-01
                       8.9226865357E-01  7.4312367070E-01  1.2500000000E-01
                       8.9230096740E-01  7.4305887892E-01  3.7506771278E-01
                       8.9239619299E-01  7.4311395964E-01  6.2500000000E-01
                       8.9230096740E-01  7.4305887892E-01  8.7493228722E-01
            znucl       63.00000   38.00000    3.00000   13.00000    7.00000    8.00000
 
================================================================================


- Timing analysis has been suppressed with timopt=0



================================================================================

 Suggested references for the acknowledgment of ABINIT usage.

 The users of ABINIT have little formal obligations with respect to the ABINIT group
 (those specified in the GNU General Public License, http://www.gnu.org/copyleft/gpl.txt).
 However, it is common practice in the scientific literature,
 to acknowledge the efforts of people that have made the research possible.
 In this spirit, please find below suggested citations of work written by ABINIT developers,
 corresponding to implementations inside of ABINIT that you have used in the present run.
 Note also that it will be of great value to readers of publications presenting these results,
 to read papers enabling them to understand the theoretical formalism and details
 of the ABINIT implementation.
 For information on why they are suggested, see also https://docs.abinit.org/theory/acknowledgments.
-
- [1] Gamma and beta cerium: DFT+U calculations of ground-state parameters.
- B. Amadon, F. Jollet and M. Torrent, Phys. Rev. B 77, 155104 (2008).
- Comment: DFT+U calculations, usepawu/=0. Strong suggestion to cite this paper.
- DOI and bibtex: see https://docs.abinit.org/theory/bibliography/#amadon2008a
-
- [2] Implementation of the Projector Augmented-Wave Method in the ABINIT code.
- M. Torrent, F. Jollet, F. Bottin, G. Zerah, and X. Gonze Comput. Mat. Science 42, 337, (2008).
- Comment: PAW calculations. Strong suggestion to cite this paper.
- DOI and bibtex: see https://docs.abinit.org/theory/bibliography/#torrent2008
-
- [3] Libxc: A library of exchange and correlation functionals for density functional theory.
- M.A.L. Marques, M.J.T. Oliveira, T. Burnus, Computer Physics Communications 183, 2227 (2012).
- Comment: to be cited when LibXC is used (negative value of ixc)
- Strong suggestion to cite this paper.
- DOI and bibtex: see https://docs.abinit.org/theory/bibliography/#marques2012
-
- [4] Large scale ab initio calculations based on three levels of parallelization
- F. Bottin, S. Leroux, A. Knyazev, G. Zerah, Comput. Mat. Science 42, 329, (2008).
- Comment: in case LOBPCG algorithm is used (wfoptalg=4/14/114).
- Strong suggestion to cite this paper in your publications.
- This paper is also available at http://www.arxiv.org/abs/0707.3405
- DOI and bibtex: see https://docs.abinit.org/theory/bibliography/#bottin2008
-
- [5] The Abinit project: Impact, environment and recent developments.
- Computer Phys. Comm. 248, 107042 (2020).
- X.Gonze, B. Amadon, G. Antonius, F.Arnardi, L.Baguet, J.-M.Beuken,
- J.Bieder, F.Bottin, J.Bouchet, E.Bousquet, N.Brouwer, F.Bruneval,
- G.Brunin, T.Cavignac, J.-B. Charraud, Wei Chen, M.Cote, S.Cottenier,
- J.Denier, G.Geneste, Ph.Ghosez, M.Giantomassi, Y.Gillet, O.Gingras,
- D.R.Hamann, G.Hautier, Xu He, N.Helbig, N.Holzwarth, Y.Jia, F.Jollet,
- W.Lafargue-Dit-Hauret, K.Lejaeghere, M.A.L.Marques, A.Martin, C.Martins,
- H.P.C. Miranda, F.Naccarato, K. Persson, G.Petretto, V.Planes, Y.Pouillon,
- S.Prokhorenko, F.Ricci, G.-M.Rignanese, A.H.Romero, M.M.Schmitt, M.Torrent,
- M.J.van Setten, B.Van Troeye, M.J.Verstraete, G.Zerah and J.W.Zwanzig
- Comment: the fifth generic paper describing the ABINIT project.
- Note that a version of this paper, that is not formatted for Computer Phys. Comm. 
- is available at https://www.abinit.org/sites/default/files/ABINIT20.pdf .
- The licence allows the authors to put it on the Web.
- DOI and bibtex: see https://docs.abinit.org/theory/bibliography/#gonze2020
-
- [6] ABINIT: Overview, and focus on selected capabilities
- J. Chem. Phys. 152, 124102 (2020).
- A. Romero, D.C. Allan, B. Amadon, G. Antonius, T. Applencourt, L.Baguet,
- J.Bieder, F.Bottin, J.Bouchet, E.Bousquet, F.Bruneval,
- G.Brunin, D.Caliste, M.Cote,
- J.Denier, C. Dreyer, Ph.Ghosez, M.Giantomassi, Y.Gillet, O.Gingras,
- D.R.Hamann, G.Hautier, F.Jollet, G. Jomard,
- A.Martin, 
- H.P.C. Miranda, F.Naccarato, G.Petretto, N.A. Pike, V.Planes,
- S.Prokhorenko, T. Rangel, F.Ricci, G.-M.Rignanese, M.Royo, M.Stengel, M.Torrent,
- M.J.van Setten, B.Van Troeye, M.J.Verstraete, J.Wiktor, J.W.Zwanziger, and X.Gonze.
- Comment: a global overview of ABINIT, with focus on selected capabilities .
- Note that a version of this paper, that is not formatted for J. Chem. Phys 
- is available at https://www.abinit.org/sites/default/files/ABINIT20_JPC.pdf .
- The licence allows the authors to put it on the Web.
- DOI and bibtex: see https://docs.abinit.org/theory/bibliography/#romero2020
-
- [7] Recent developments in the ABINIT software package.
- Computer Phys. Comm. 205, 106 (2016).
- X.Gonze, F.Jollet, F.Abreu Araujo, D.Adams, B.Amadon, T.Applencourt,
- C.Audouze, J.-M.Beuken, J.Bieder, A.Bokhanchuk, E.Bousquet, F.Bruneval
- D.Caliste, M.Cote, F.Dahm, F.Da Pieve, M.Delaveau, M.Di Gennaro,
- B.Dorado, C.Espejo, G.Geneste, L.Genovese, A.Gerossier, M.Giantomassi,
- Y.Gillet, D.R.Hamann, L.He, G.Jomard, J.Laflamme Janssen, S.Le Roux,
- A.Levitt, A.Lherbier, F.Liu, I.Lukacevic, A.Martin, C.Martins,
- M.J.T.Oliveira, S.Ponce, Y.Pouillon, T.Rangel, G.-M.Rignanese,
- A.H.Romero, B.Rousseau, O.Rubel, A.A.Shukri, M.Stankovski, M.Torrent,
- M.J.Van Setten, B.Van Troeye, M.J.Verstraete, D.Waroquier, J.Wiktor,
- B.Xu, A.Zhou, J.W.Zwanziger.
- Comment: the fourth generic paper describing the ABINIT project.
- Note that a version of this paper, that is not formatted for Computer Phys. Comm. 
- is available at https://www.abinit.org/sites/default/files/ABINIT16.pdf .
- The licence allows the authors to put it on the Web.
- DOI and bibtex: see https://docs.abinit.org/theory/bibliography/#gonze2016
-
- Proc.   0 individual time (sec): cpu=       2107.2  wall=       2139.8
 
================================================================================
 
 Calculation completed.
.Delivered   0 WARNINGs and   0 COMMENTs to log file.
+Overall time at end (sec) : cpu=      84382.3  wall=      85582.1
