
.Version 9.4.2 of ABINIT 
.(MPI version, prepared for a x86_64_linux_intel19.1 computer) 

.Copyright (C) 1998-2021 ABINIT group . 
 ABINIT comes with ABSOLUTELY NO WARRANTY.
 It is free software, and you are welcome to redistribute it
 under certain conditions (GNU General Public License,
 see ~abinit/COPYING or http://www.gnu.org/copyleft/gpl.txt).

 ABINIT is a project of the Universite Catholique de Louvain,
 Corning Inc. and other collaborators, see ~abinit/doc/developers/contributors.txt .
 Please read https://docs.abinit.org/theory/acknowledgments for suggested
 acknowledgments of the ABINIT effort.
 For more information, see https://www.abinit.org .

.Starting date : Wed 25 Aug 2021.
- ( at 04h28 )
  
- input  file    -> /scratch/users/j/b/jbouq/LumiWork_tuto/delta_SCF_no_BS/flow_deltaSCF/w0/t1/run.abi
- output file    -> /scratch/users/j/b/jbouq/LumiWork_tuto/delta_SCF_no_BS/flow_deltaSCF/w0/t1/run.abo
- root for input  files -> /scratch/users/j/b/jbouq/LumiWork_tuto/delta_SCF_no_BS/flow_deltaSCF/w0/t1/indata/in
- root for output files -> /scratch/users/j/b/jbouq/LumiWork_tuto/delta_SCF_no_BS/flow_deltaSCF/w0/t1/outdata/out
 
- inpspheads : Reading pseudopotential header in XML form from 
-   /home/ucl/modl/jbouq/psps_paw_pbe/Eu.GGA_PBE-JTH.xml
- inpspheads : Reading pseudopotential header in XML form from 
-   /home/ucl/modl/jbouq/psps_paw_pbe/Sr.GGA_PBE-JTH.xml
- inpspheads : Reading pseudopotential header in XML form from 
-   /home/ucl/modl/jbouq/psps_paw_pbe/Li.GGA_PBE-JTH.xml
- inpspheads : Reading pseudopotential header in XML form from 
-   /home/ucl/modl/jbouq/psps_paw_pbe/Al.GGA_PBE-JTH.xml
- inpspheads : Reading pseudopotential header in XML form from 
-   /home/ucl/modl/jbouq/psps_paw_pbe/N.GGA_PBE-JTH.xml
- inpspheads : Reading pseudopotential header in XML form from 
-   /home/ucl/modl/jbouq/psps_paw_pbe/O.GGA_PBE-JTH.xml
 
 Symmetries : space group P2/m (# 10); Bravais mP (primitive monocl.)
================================================================================
 Values of the parameters that define the memory need of the present run
     intxc =       0    ionmov =      22      iscf =      17    lmnmax =      32
     lnmax =       8     mgfft =      90  mpssoang =       4    mqgrid =    6288
     natom =      72  nloc_mem =       2    nspden =       2   nspinor =       1
    nsppol =       2      nsym =       4    n1xccc =       1    ntypat =       6
    occopt =       2   xclevel =       2
-    mband =         204        mffmem =           1         mkmem =           1
       mpw =        1897          nfft =       32400          nkpt =           2
Pmy_natom=        18
 PAW method is used; the additional fine FFT grid is defined by:
   mgfftf=       150    nfftf =     96000
================================================================================
P This job should need less than                     125.309 Mbytes of memory.
  Rough estimation (10% accuracy) of disk space for files :
_ WF disk file :    236.201 Mbytes ; DEN or POT disk file :      1.467 Mbytes.
================================================================================
 
--------------------------------------------------------------------------------
------------- Echo of variables that govern the present computation ------------
--------------------------------------------------------------------------------
-
- outvars: echo of selected default values                                      
-   iomode0 =  0 , fftalg0 =512 , wfoptalg0 = 10
-
- outvars: echo of global parameters not present in the input file              
-  max_nthreads =    0
-
 -outvars: echo values of preprocessed input variables --------
-          iomode           1
            acell      1.0000000000E+00  1.0000000000E+00  1.0000000000E+00 Bohr
              amu      1.51965000E+02  8.76200000E+01  6.94100000E+00
                       2.69815390E+01  1.40067400E+01  1.59994000E+01
           bandpp          68
       chkdilatmx           0
          chkprim           0
      chksymbreak           0
     densfor_pred           6
           diemac      5.00000000E+00
          dilatmx      1.05000000E+00
             ecut      1.50000000E+01 Hartree
           ecutsm      5.00000000E-01 Hartree
-          fftalg         401
           ionmov          22
           irdden           1
              ixc     -101130
            jpawu      2.57245278E-02  0.00000000E+00  0.00000000E+00  0.00000000E+00  0.00000000E+00  0.00000000E+00 Hartree
              kpt      2.50000000E-01  2.50000000E-01  2.50000000E-01
                      -2.50000000E-01  2.50000000E-01  2.50000000E-01
         kptrlatt        2    0    0      0    2    0      0    0    2
          kptrlen      3.02779499E+01
            lpawu           3      -1      -1      -1      -1      -1
P           mkmem           1
            natom          72
            nband         204     204     204     204
            ngfft          60      60      90
          ngfftdg          80      80     150
             nkpt           2
-           npfft          10
-        np_spkpt           4
           nspden           2
           nsppol           2
            nstep         100
             nsym           4
            ntime        1000
           ntypat           6
              occ      1.000000  1.000000  1.000000  1.000000  1.000000  1.000000
                       1.000000  1.000000  1.000000  1.000000  1.000000  1.000000
                       1.000000  1.000000  1.000000  1.000000  1.000000  1.000000
                       1.000000  1.000000  1.000000  1.000000  1.000000  1.000000
                       1.000000  1.000000  1.000000  1.000000  1.000000  1.000000
                       1.000000  1.000000  1.000000  1.000000  1.000000  1.000000
                       1.000000  1.000000  1.000000  1.000000  1.000000  1.000000
                       1.000000  1.000000  1.000000  1.000000  1.000000  1.000000
                       1.000000  1.000000  1.000000  1.000000  1.000000  1.000000
                       1.000000  1.000000  1.000000  1.000000  1.000000  1.000000
                       1.000000  1.000000  1.000000  1.000000  1.000000  1.000000
                       1.000000  1.000000  1.000000  1.000000  1.000000  1.000000
                       1.000000  1.000000  1.000000  1.000000  1.000000  1.000000
                       1.000000  1.000000  1.000000  1.000000  1.000000  1.000000
                       1.000000  1.000000  1.000000  1.000000  1.000000  1.000000
                       1.000000  1.000000  1.000000  1.000000  1.000000  1.000000
                       1.000000  1.000000  1.000000  1.000000  1.000000  1.000000
                       1.000000  1.000000  1.000000  1.000000  1.000000  1.000000
                       1.000000  1.000000  1.000000  1.000000  1.000000  1.000000
                       1.000000  1.000000  1.000000  1.000000  1.000000  1.000000
                       1.000000  1.000000  1.000000  1.000000  1.000000  1.000000
                       1.000000  1.000000  1.000000  1.000000  1.000000  1.000000
                       1.000000  1.000000  1.000000  1.000000  1.000000  1.000000
                       1.000000  1.000000  1.000000  1.000000  1.000000  1.000000
                       1.000000  1.000000  1.000000  1.000000  1.000000  1.000000
                       1.000000  1.000000  1.000000  1.000000  1.000000  1.000000
                       1.000000  1.000000  1.000000  1.000000  1.000000  1.000000
                       1.000000  1.000000  1.000000  1.000000  1.000000  1.000000
                       1.000000  1.000000  1.000000  1.000000  1.000000  1.000000
                       1.000000  1.000000  1.000000  1.000000  1.000000  1.000000
                       1.000000  1.000000  0.000000  1.000000  0.000000  0.000000
                       0.000000  0.000000  0.000000  0.000000  0.000000  0.000000
                       0.000000  0.000000  0.000000  0.000000  0.000000  0.000000
                       0.000000  0.000000  0.000000  0.000000  0.000000  0.000000
                       1.000000  1.000000  1.000000  1.000000  1.000000  1.000000
                       1.000000  1.000000  1.000000  1.000000  1.000000  1.000000
                       1.000000  1.000000  1.000000  1.000000  1.000000  1.000000
                       1.000000  1.000000  1.000000  1.000000  1.000000  1.000000
                       1.000000  1.000000  1.000000  1.000000  1.000000  1.000000
                       1.000000  1.000000  1.000000  1.000000  1.000000  1.000000
                       1.000000  1.000000  1.000000  1.000000  1.000000  1.000000
                       1.000000  1.000000  1.000000  1.000000  1.000000  1.000000
                       1.000000  1.000000  1.000000  1.000000  1.000000  1.000000
                       1.000000  1.000000  1.000000  1.000000  1.000000  1.000000
                       1.000000  1.000000  1.000000  1.000000  1.000000  1.000000
                       1.000000  1.000000  1.000000  1.000000  1.000000  1.000000
                       1.000000  1.000000  1.000000  1.000000  1.000000  1.000000
                       1.000000  1.000000  1.000000  1.000000  1.000000  1.000000
                       1.000000  1.000000  1.000000  1.000000  1.000000  1.000000
                       1.000000  1.000000  1.000000  1.000000  1.000000  1.000000
                       1.000000  1.000000  1.000000  1.000000  1.000000  1.000000
                       1.000000  1.000000  1.000000  1.000000  1.000000  1.000000
                       1.000000  1.000000  1.000000  1.000000  1.000000  1.000000
                       1.000000  1.000000  1.000000  1.000000  1.000000  1.000000
                       1.000000  1.000000  1.000000  1.000000  1.000000  1.000000
                       1.000000  1.000000  1.000000  1.000000  1.000000  1.000000
                       1.000000  1.000000  1.000000  1.000000  1.000000  1.000000
                       1.000000  1.000000  1.000000  1.000000  1.000000  1.000000
                       1.000000  1.000000  1.000000  1.000000  1.000000  1.000000
                       1.000000  1.000000  1.000000  1.000000  1.000000  1.000000
                       1.000000  1.000000  1.000000  1.000000  1.000000  1.000000
                       1.000000  1.000000  1.000000  1.000000  1.000000  1.000000
                       1.000000  1.000000  1.000000  1.000000  1.000000  1.000000
                       1.000000  1.000000  1.000000  1.000000  1.000000  1.000000
                       1.000000  1.000000  0.000000  1.000000  0.000000  0.000000
                       0.000000  0.000000  0.000000  0.000000  0.000000  0.000000
                       0.000000  0.000000  0.000000  0.000000  0.000000  0.000000
                       0.000000  0.000000  0.000000  0.000000  0.000000  0.000000
                       1.000000  1.000000  1.000000  1.000000  1.000000  1.000000
                       1.000000  1.000000  1.000000  1.000000  1.000000  1.000000
                       1.000000  1.000000  1.000000  1.000000  1.000000  1.000000
                       1.000000  1.000000  1.000000  1.000000  1.000000  1.000000
                       1.000000  1.000000  1.000000  1.000000  1.000000  1.000000
                       1.000000  1.000000  1.000000  1.000000  1.000000  1.000000
                       1.000000  1.000000  1.000000  1.000000  1.000000  1.000000
                       1.000000  1.000000  1.000000  1.000000  1.000000  1.000000
                       1.000000  1.000000  1.000000  1.000000  1.000000  1.000000
                       1.000000  1.000000  1.000000  1.000000  1.000000  1.000000
                       1.000000  1.000000  1.000000  1.000000  1.000000  1.000000
                       1.000000  1.000000  1.000000  1.000000  1.000000  1.000000
                       1.000000  1.000000  1.000000  1.000000  1.000000  1.000000
                       1.000000  1.000000  1.000000  1.000000  1.000000  1.000000
                       1.000000  1.000000  1.000000  1.000000  1.000000  1.000000
                       1.000000  1.000000  1.000000  1.000000  1.000000  1.000000
                       1.000000  1.000000  1.000000  1.000000  1.000000  1.000000
                       1.000000  1.000000  1.000000  1.000000  1.000000  1.000000
                       1.000000  1.000000  1.000000  1.000000  1.000000  1.000000
                       1.000000  1.000000  1.000000  1.000000  1.000000  1.000000
                       1.000000  1.000000  1.000000  1.000000  1.000000  1.000000
                       1.000000  1.000000  1.000000  1.000000  1.000000  1.000000
                       1.000000  1.000000  1.000000  1.000000  1.000000  1.000000
                       1.000000  1.000000  1.000000  1.000000  1.000000  1.000000
                       1.000000  1.000000  1.000000  1.000000  1.000000  1.000000
                       1.000000  1.000000  1.000000  1.000000  1.000000  1.000000
                       1.000000  1.000000  1.000000  1.000000  1.000000  1.000000
                       1.000000  1.000000  1.000000  1.000000  1.000000  1.000000
                       1.000000  1.000000  1.000000  1.000000  1.000000  1.000000
                       1.000000  1.000000  0.000000  0.000000  0.000000  0.000000
                       0.000000  0.000000  0.000000  0.000000  0.000000  0.000000
                       0.000000  0.000000  0.000000  0.000000  0.000000  0.000000
                       0.000000  0.000000  0.000000  0.000000  0.000000  0.000000
                       0.000000  0.000000  0.000000  0.000000  0.000000  0.000000
                       1.000000  1.000000  1.000000  1.000000  1.000000  1.000000
                       1.000000  1.000000  1.000000  1.000000  1.000000  1.000000
                       1.000000  1.000000  1.000000  1.000000  1.000000  1.000000
                       1.000000  1.000000  1.000000  1.000000  1.000000  1.000000
                       1.000000  1.000000  1.000000  1.000000  1.000000  1.000000
                       1.000000  1.000000  1.000000  1.000000  1.000000  1.000000
                       1.000000  1.000000  1.000000  1.000000  1.000000  1.000000
                       1.000000  1.000000  1.000000  1.000000  1.000000  1.000000
                       1.000000  1.000000  1.000000  1.000000  1.000000  1.000000
                       1.000000  1.000000  1.000000  1.000000  1.000000  1.000000
                       1.000000  1.000000  1.000000  1.000000  1.000000  1.000000
                       1.000000  1.000000  1.000000  1.000000  1.000000  1.000000
                       1.000000  1.000000  1.000000  1.000000  1.000000  1.000000
                       1.000000  1.000000  1.000000  1.000000  1.000000  1.000000
                       1.000000  1.000000  1.000000  1.000000  1.000000  1.000000
                       1.000000  1.000000  1.000000  1.000000  1.000000  1.000000
                       1.000000  1.000000  1.000000  1.000000  1.000000  1.000000
                       1.000000  1.000000  1.000000  1.000000  1.000000  1.000000
                       1.000000  1.000000  1.000000  1.000000  1.000000  1.000000
                       1.000000  1.000000  1.000000  1.000000  1.000000  1.000000
                       1.000000  1.000000  1.000000  1.000000  1.000000  1.000000
                       1.000000  1.000000  1.000000  1.000000  1.000000  1.000000
                       1.000000  1.000000  1.000000  1.000000  1.000000  1.000000
                       1.000000  1.000000  1.000000  1.000000  1.000000  1.000000
                       1.000000  1.000000  1.000000  1.000000  1.000000  1.000000
                       1.000000  1.000000  1.000000  1.000000  1.000000  1.000000
                       1.000000  1.000000  1.000000  1.000000  1.000000  1.000000
                       1.000000  1.000000  1.000000  1.000000  1.000000  1.000000
                       1.000000  1.000000  1.000000  1.000000  1.000000  1.000000
                       1.000000  1.000000  0.000000  0.000000  0.000000  0.000000
                       0.000000  0.000000  0.000000  0.000000  0.000000  0.000000
                       0.000000  0.000000  0.000000  0.000000  0.000000  0.000000
                       0.000000  0.000000  0.000000  0.000000  0.000000  0.000000
                       0.000000  0.000000  0.000000  0.000000  0.000000  0.000000
           occopt           2
        optforces           1
        paral_kgb           1
        pawecutdg      3.00000000E+01 Hartree
         pawmixdg           1
            prtwf          -1
            rprim      1.5139044928E+01  3.8157104200E-02  0.0000000000E+00
                       3.8157104200E-02  1.5138926862E+01  0.0000000000E+00
                       0.0000000000E+00  0.0000000000E+00  2.4286034968E+01
           shiftk      5.00000000E-01  5.00000000E-01  5.00000000E-01
          spgroup          10
           spinat      0.0000000000E+00  0.0000000000E+00  7.0000000000E+00
                       0.0000000000E+00  0.0000000000E+00  0.0000000000E+00
                       0.0000000000E+00  0.0000000000E+00  0.0000000000E+00
                       0.0000000000E+00  0.0000000000E+00  0.0000000000E+00
                       0.0000000000E+00  0.0000000000E+00  0.0000000000E+00
                       0.0000000000E+00  0.0000000000E+00  0.0000000000E+00
                       0.0000000000E+00  0.0000000000E+00  0.0000000000E+00
                       0.0000000000E+00  0.0000000000E+00  0.0000000000E+00
                       0.0000000000E+00  0.0000000000E+00  0.0000000000E+00
                       0.0000000000E+00  0.0000000000E+00  0.0000000000E+00
                       0.0000000000E+00  0.0000000000E+00  0.0000000000E+00
                       0.0000000000E+00  0.0000000000E+00  0.0000000000E+00
                       0.0000000000E+00  0.0000000000E+00  0.0000000000E+00
                       0.0000000000E+00  0.0000000000E+00  0.0000000000E+00
                       0.0000000000E+00  0.0000000000E+00  0.0000000000E+00
                       0.0000000000E+00  0.0000000000E+00  0.0000000000E+00
                       0.0000000000E+00  0.0000000000E+00  0.0000000000E+00
                       0.0000000000E+00  0.0000000000E+00  0.0000000000E+00
                       0.0000000000E+00  0.0000000000E+00  0.0000000000E+00
                       0.0000000000E+00  0.0000000000E+00  0.0000000000E+00
                       0.0000000000E+00  0.0000000000E+00  0.0000000000E+00
                       0.0000000000E+00  0.0000000000E+00  0.0000000000E+00
                       0.0000000000E+00  0.0000000000E+00  0.0000000000E+00
                       0.0000000000E+00  0.0000000000E+00  0.0000000000E+00
                       0.0000000000E+00  0.0000000000E+00  0.0000000000E+00
                       0.0000000000E+00  0.0000000000E+00  0.0000000000E+00
                       0.0000000000E+00  0.0000000000E+00  0.0000000000E+00
                       0.0000000000E+00  0.0000000000E+00  0.0000000000E+00
                       0.0000000000E+00  0.0000000000E+00  0.0000000000E+00
                       0.0000000000E+00  0.0000000000E+00  0.0000000000E+00
                       0.0000000000E+00  0.0000000000E+00  0.0000000000E+00
                       0.0000000000E+00  0.0000000000E+00  0.0000000000E+00
                       0.0000000000E+00  0.0000000000E+00  0.0000000000E+00
                       0.0000000000E+00  0.0000000000E+00  0.0000000000E+00
                       0.0000000000E+00  0.0000000000E+00  0.0000000000E+00
                       0.0000000000E+00  0.0000000000E+00  0.0000000000E+00
                       0.0000000000E+00  0.0000000000E+00  0.0000000000E+00
                       0.0000000000E+00  0.0000000000E+00  0.0000000000E+00
                       0.0000000000E+00  0.0000000000E+00  0.0000000000E+00
                       0.0000000000E+00  0.0000000000E+00  0.0000000000E+00
                       0.0000000000E+00  0.0000000000E+00  0.0000000000E+00
                       0.0000000000E+00  0.0000000000E+00  0.0000000000E+00
                       0.0000000000E+00  0.0000000000E+00  0.0000000000E+00
                       0.0000000000E+00  0.0000000000E+00  0.0000000000E+00
                       0.0000000000E+00  0.0000000000E+00  0.0000000000E+00
                       0.0000000000E+00  0.0000000000E+00  0.0000000000E+00
                       0.0000000000E+00  0.0000000000E+00  0.0000000000E+00
                       0.0000000000E+00  0.0000000000E+00  0.0000000000E+00
                       0.0000000000E+00  0.0000000000E+00  0.0000000000E+00
                       0.0000000000E+00  0.0000000000E+00  0.0000000000E+00
                       0.0000000000E+00  0.0000000000E+00  0.0000000000E+00
                       0.0000000000E+00  0.0000000000E+00  0.0000000000E+00
                       0.0000000000E+00  0.0000000000E+00  0.0000000000E+00
                       0.0000000000E+00  0.0000000000E+00  0.0000000000E+00
                       0.0000000000E+00  0.0000000000E+00  0.0000000000E+00
                       0.0000000000E+00  0.0000000000E+00  0.0000000000E+00
                       0.0000000000E+00  0.0000000000E+00  0.0000000000E+00
                       0.0000000000E+00  0.0000000000E+00  0.0000000000E+00
                       0.0000000000E+00  0.0000000000E+00  0.0000000000E+00
                       0.0000000000E+00  0.0000000000E+00  0.0000000000E+00
                       0.0000000000E+00  0.0000000000E+00  0.0000000000E+00
                       0.0000000000E+00  0.0000000000E+00  0.0000000000E+00
                       0.0000000000E+00  0.0000000000E+00  0.0000000000E+00
                       0.0000000000E+00  0.0000000000E+00  0.0000000000E+00
                       0.0000000000E+00  0.0000000000E+00  0.0000000000E+00
                       0.0000000000E+00  0.0000000000E+00  0.0000000000E+00
                       0.0000000000E+00  0.0000000000E+00  0.0000000000E+00
                       0.0000000000E+00  0.0000000000E+00  0.0000000000E+00
                       0.0000000000E+00  0.0000000000E+00  0.0000000000E+00
                       0.0000000000E+00  0.0000000000E+00  0.0000000000E+00
                       0.0000000000E+00  0.0000000000E+00  0.0000000000E+00
                       0.0000000000E+00  0.0000000000E+00  0.0000000000E+00
           symrel      1  0  0   0  1  0   0  0  1      -1  0  0   0 -1  0   0  0 -1
                      -1  0  0   0 -1  0   0  0  1       1  0  0   0  1  0   0  0 -1
            tnons      0.0000000  0.0000000  0.0000000    -0.0000000 -0.0000000  0.2500000
                      -0.0000000 -0.0000000  0.0000000     0.0000000  0.0000000  0.2500000
           toldff      1.00000000E-05
           tolmxf      1.00000000E-04
            typat      1  2  2  2  2  2  2  2  3  3  3  3  3  3  3  3  3  3  3  3
                       3  3  3  3  4  4  4  4  4  4  4  4  4  4  4  4  4  4  4  4
                       5  5  5  5  5  5  5  5  5  5  5  5  5  5  5  5  6  6  6  6
                       6  6  6  6  6  6  6  6  6  6  6  6
            upawu      2.57245278E-01  0.00000000E+00  0.00000000E+00  0.00000000E+00  0.00000000E+00  0.00000000E+00 Hartree
          usepawu           1
           useylm           1
         wfoptalg         114
              wtk        0.50000    0.50000
           xangst      4.0056187680E+00  1.0095934944E-02  1.6064520240E+00
                       4.0056187680E+00  1.0095934944E-02  4.8210276175E+00
                       4.0056187680E+00  1.0095934944E-02  8.0322601200E+00
                       4.0056187680E+00  1.0095934944E-02  1.1243492623E+01
                       1.0095934944E-02  4.0055875290E+00 -2.0215470794E-04
                       1.0095934944E-02  4.0055875290E+00  3.2131062027E+00
                       1.0095934944E-02  4.0055875290E+00  6.4261967919E+00
                       1.0095934944E-02  4.0055875290E+00  9.6383234482E+00
                       1.0217247860E+00  6.5943499652E+00  1.6064520240E+00
                       1.0225694129E+00  6.5936654374E+00  4.8223198796E+00
                       1.0249806176E+00  6.5950367007E+00  8.0322601200E+00
                       1.0225694129E+00  6.5936654374E+00  1.1242200360E+01
                       7.0097046198E+00  1.4370169627E+00  1.6064520240E+00
                       7.0088599929E+00  1.4377014906E+00  4.8223198796E+00
                       7.0064487882E+00  1.4363302272E+00  8.0322601200E+00
                       7.0088599929E+00  1.4377014906E+00  1.1242200360E+01
                       1.4194855438E+00  1.0154564806E+00 -4.1803196117E-04
                       1.4194855438E+00  1.0154564806E+00  3.2133220800E+00
                       1.4218351583E+00  1.0161913324E+00  6.4262603405E+00
                       1.4218351583E+00  1.0161913324E+00  9.6382598995E+00
                       6.6119438620E+00  7.0159104474E+00 -4.1803196117E-04
                       6.6119438620E+00  7.0159104474E+00  3.2133220800E+00
                       6.6095942475E+00  7.0151755955E+00  6.4262603405E+00
                       6.6095942475E+00  7.0151755955E+00  9.6382598995E+00
                       2.8404285276E+00  5.4899011717E+00 -2.8390236708E-05
                       2.8404285276E+00  5.4899011717E+00  3.2129324382E+00
                       2.8424842443E+00  5.4902389612E+00  6.4261158794E+00
                       2.8424842443E+00  5.4902389612E+00  9.6384043607E+00
                       5.1910008782E+00  2.5414657563E+00 -2.8390236708E-05
                       5.1910008782E+00  2.5414657563E+00  3.2129324382E+00
                       5.1889451615E+00  2.5411279667E+00  6.4261158794E+00
                       5.1889451615E+00  2.5411279667E+00  9.6384043607E+00
                       2.5394981982E+00  2.8362834068E+00  1.6064520240E+00
                       2.5384831051E+00  2.8384633397E+00  4.8211772694E+00
                       2.5383432678E+00  2.8379800470E+00  8.0322601200E+00
                       2.5384831051E+00  2.8384633397E+00  1.1243342971E+01
                       5.4919312077E+00  5.1950835211E+00  1.6064520240E+00
                       5.4929463008E+00  5.1929035882E+00  4.8211772694E+00
                       5.4930861380E+00  5.1933868809E+00  8.0322601200E+00
                       5.4929463008E+00  5.1929035882E+00  1.1243342971E+01
                       4.6978004701E+00  5.8583626769E+00 -1.9141503410E-03
                       4.6978004701E+00  5.8583626769E+00  3.2148181983E+00
                       4.6990215655E+00  5.8605170226E+00  6.4265129545E+00
                       4.6990215655E+00  5.8605170226E+00  9.6380072856E+00
                       3.3336289358E+00  2.1730042511E+00 -1.9141503410E-03
                       3.3336289358E+00  2.1730042511E+00  3.2148181983E+00
                       3.3324078403E+00  2.1708499053E+00  6.4265129545E+00
                       3.3324078403E+00  2.1708499053E+00  9.6380072856E+00
                       2.1752377891E+00  4.6934176008E+00  1.6064520240E+00
                       2.1755122445E+00  4.6947262127E+00  4.8203563159E+00
                       2.1756741970E+00  4.6946858403E+00  8.0322601200E+00
                       2.1755122445E+00  4.6947262127E+00  1.1244163924E+01
                       5.8561916167E+00  3.3379493271E+00  1.6064520240E+00
                       5.8559171614E+00  3.3366407152E+00  4.8203563159E+00
                       5.8557552088E+00  3.3366810876E+00  8.0322601200E+00
                       5.8559171614E+00  3.3366407152E+00  1.1244163924E+01
                       2.0565788173E+00  7.1572216329E+00 -4.0667076381E-03
                       2.0565788173E+00  7.1572216329E+00  3.2169707556E+00
                       2.0666318964E+00  7.1605407112E+00  6.4265354062E+00
                       2.0666318964E+00  7.1605407112E+00  9.6379848338E+00
                       5.9748505885E+00  8.7414529499E-01 -4.0667076381E-03
                       5.9748505885E+00  8.7414529499E-01  3.2169707556E+00
                       5.9647975095E+00  8.7082621672E-01  6.4265354062E+00
                       5.9647975095E+00  8.7082621672E-01  9.6379848338E+00
                       8.6824821949E-01  2.0600565396E+00  1.6064520240E+00
                       8.6799065423E-01  2.0605749456E+00  4.8202262909E+00
                       8.6722666715E-01  2.0601317617E+00  8.0322601200E+00
                       8.6799065423E-01  2.0605749456E+00  1.1244293949E+01
                       7.1631811863E+00  5.9713103883E+00  1.6064520240E+00
                       7.1634387516E+00  5.9707919823E+00  4.8202262909E+00
                       7.1642027387E+00  5.9712351662E+00  8.0322601200E+00
                       7.1634387516E+00  5.9707919823E+00  1.1244293949E+01
            xcart      7.5695224642E+00  1.9078552100E-02  3.0357543710E+00
                       7.5695224642E+00  1.9078552100E-02  9.1104218761E+00
                       7.5695224642E+00  1.9078552100E-02  1.5178771855E+01
                       7.5695224642E+00  1.9078552100E-02  2.1247121834E+01
                       1.9078552100E-02  7.5694634311E+00 -3.8201703448E-04
                       1.9078552100E-02  7.5694634311E+00  6.0718907590E+00
                       1.9078552100E-02  7.5694634311E+00  1.2143752013E+01
                       1.9078552100E-02  7.5694634311E+00  1.8213791697E+01
                       1.9307800287E+00  1.2461515459E+01  3.0357543710E+00
                       1.9323761422E+00  1.2460221888E+01  9.1128638976E+00
                       1.9369326589E+00  1.2462813201E+01  1.5178771855E+01
                       1.9323761422E+00  1.2460221888E+01  2.1244679812E+01
                       1.3246422004E+01  2.7155685078E+00  3.0357543710E+00
                       1.3244825890E+01  2.7168620780E+00  9.1128638976E+00
                       1.3240269374E+01  2.7142707658E+00  1.5178771855E+01
                       1.3244825890E+01  2.7168620780E+00  2.1244679812E+01
                       2.6824389274E+00  1.9189346481E+00 -7.8996592140E-04
                       2.6824389274E+00  1.9189346481E+00  6.0722987079E+00
                       2.6868790553E+00  1.9203233169E+00  1.2143872102E+01
                       2.6868790553E+00  1.9203233169E+00  1.8213671608E+01
                       1.2494763105E+01  1.3258149318E+01 -7.8996592140E-04
                       1.2494763105E+01  1.3258149318E+01  6.0722987079E+00
                       1.2490322977E+01  1.3256760650E+01  1.2143872102E+01
                       1.2490322977E+01  1.3256760650E+01  1.8213671608E+01
                       5.3676320171E+00  1.0374409711E+01 -5.3649772227E-05
                       5.3676320171E+00  1.0374409711E+01  6.0715623917E+00
                       5.3715167588E+00  1.0375048041E+01  1.2143599110E+01
                       5.3715167588E+00  1.0375048041E+01  1.8213944600E+01
                       9.8095700155E+00  4.8026742554E+00 -5.3649772227E-05
                       9.8095700155E+00  4.8026742554E+00  6.0715623917E+00
                       9.8056852738E+00  4.8020359256E+00  1.2143599110E+01
                       9.8056852738E+00  4.8020359256E+00  1.8213944600E+01
                       4.7989561095E+00  5.3597988741E+00  3.0357543710E+00
                       4.7970378615E+00  5.3639183503E+00  9.1107046773E+00
                       4.7967736074E+00  5.3630050595E+00  1.5178771855E+01
                       4.7970378615E+00  5.3639183503E+00  2.1246839033E+01
                       1.0378245923E+01  9.8172850924E+00  3.0357543710E+00
                       1.0380164171E+01  9.8131656162E+00  9.1107046773E+00
                       1.0380428425E+01  9.8140789070E+00  1.5178771855E+01
                       1.0380164171E+01  9.8131656162E+00  2.1246839033E+01
                       8.8775563153E+00  1.1070701046E+01 -3.6172199217E-03
                       8.8775563153E+00  1.1070701046E+01  6.0751259619E+00
                       8.8798638514E+00  1.1074772170E+01  1.2144349473E+01
                       8.8798638514E+00  1.1074772170E+01  1.8213194236E+01
                       6.2996457173E+00  4.1063829201E+00 -3.6172199217E-03
                       6.2996457173E+00  4.1063829201E+00  6.0751259619E+00
                       6.2973381812E+00  4.1023117967E+00  1.2144349473E+01
                       6.2973381812E+00  4.1023117967E+00  1.8213194236E+01
                       4.1106036953E+00  8.8692738928E+00  3.0357543710E+00
                       4.1111223408E+00  8.8717468110E+00  9.1091532999E+00
                       4.1114283867E+00  8.8716705181E+00  1.5178771855E+01
                       4.1111223408E+00  8.8717468110E+00  2.1248390410E+01
                       1.1066598337E+01  6.3078100737E+00  3.0357543710E+00
                       1.1066079692E+01  6.3053371555E+00  9.1091532999E+00
                       1.1065773646E+01  6.3054134484E+00  1.5178771855E+01
                       1.1066079692E+01  6.3053371555E+00  2.1248390410E+01
                       3.8863707354E+00  1.3525188759E+01 -7.6849636985E-03
                       3.8863707354E+00  1.3525188759E+01  6.0791937057E+00
                       3.9053683016E+00  1.3531460908E+01  1.2144391901E+01
                       3.9053683016E+00  1.3531460908E+01  1.8213151809E+01
                       1.1290831297E+01  1.6518952079E+00 -7.6849636985E-03
                       1.1290831297E+01  1.6518952079E+00  6.0791937057E+00
                       1.1271833731E+01  1.6456230589E+00  1.2144391901E+01
                       1.1271833731E+01  1.6456230589E+00  1.8213151809E+01
                       1.6407513502E+00  3.8929426781E+00  3.0357543710E+00
                       1.6402646224E+00  3.8939223235E+00  9.1089075884E+00
                       1.6388208961E+00  3.8930848272E+00  1.5178771855E+01
                       1.6402646224E+00  3.8939223235E+00  2.1248636121E+01
                       1.3536450682E+01  1.1284141288E+01  3.0357543710E+00
                       1.3536937410E+01  1.1283161643E+01  9.1089075884E+00
                       1.3538381137E+01  1.1283999139E+01  1.5178771855E+01
                       1.3536937410E+01  1.1283161643E+01  2.1248636121E+01
             xred      5.0000000000E-01 -2.1684043450E-19  1.2500000000E-01
                       5.0000000000E-01 -2.1684043450E-19  3.7513006500E-01
                       5.0000000000E-01 -2.1684043450E-19  6.2500000000E-01
                       5.0000000000E-01 -2.1684043450E-19  8.7486993500E-01
                      -5.5511151231E-17  5.0000000000E-01 -1.5729905478E-05
                      -5.5511151231E-17  5.0000000000E-01  2.5001572991E-01
                      -5.5511151231E-17  5.0000000000E-01  5.0003024490E-01
                      -5.5511151231E-17  5.0000000000E-01  7.4996975510E-01
                       1.2546255830E-01  8.2282768680E-01  1.2500000000E-01
                       1.2556820460E-01  8.2274197390E-01  3.7523061750E-01
                       1.2586875290E-01  8.2291238520E-01  6.2500000000E-01
                       1.2556820460E-01  8.2274197390E-01  8.7476938250E-01
                       8.7453744170E-01  1.7717231320E-01  1.2500000000E-01
                       8.7443179540E-01  1.7725802610E-01  3.7523061750E-01
                       8.7413124710E-01  1.7708761480E-01  6.2500000000E-01
                       8.7443179540E-01  1.7725802610E-01  8.7476938250E-01
                       1.7686844490E-01  1.2630920790E-01 -3.2527579016E-05
                       1.7686844490E-01  1.2630920790E-01  2.5003252758E-01
                       1.7716150540E-01  1.2640019760E-01  5.0003518970E-01
                       1.7716150540E-01  1.2640019760E-01  7.4996481030E-01
                       8.2313155510E-01  8.7369079210E-01 -3.2527579016E-05
                       8.2313155510E-01  8.7369079210E-01  2.5003252758E-01
                       8.2283849460E-01  8.7359980240E-01  5.0003518970E-01
                       8.2283849460E-01  8.7359980240E-01  7.4996481030E-01
                       3.5283055570E-01  6.8439109410E-01 -2.2090790982E-06
                       3.5283055570E-01  6.8439109410E-01  2.5000220908E-01
                       3.5308705520E-01  6.8443261240E-01  5.0002394900E-01
                       3.5308705520E-01  6.8443261240E-01  7.4997605100E-01
                       6.4716944430E-01  3.1560890590E-01 -2.2090790982E-06
                       6.4716944430E-01  3.1560890590E-01  2.5000220908E-01
                       6.4691294480E-01  3.1556738760E-01  5.0002394900E-01
                       6.4691294480E-01  3.1556738760E-01  7.4997605100E-01
                       3.1610166680E-01  3.5324414990E-01  1.2500000000E-01
                       3.1597427150E-01  3.5351658250E-01  3.7514170960E-01
                       3.1595696830E-01  3.5345629880E-01  6.2500000000E-01
                       3.1597427150E-01  3.5351658250E-01  8.7485829040E-01
                       6.8389833320E-01  6.4675585010E-01  1.2500000000E-01
                       6.8402572850E-01  6.4648341750E-01  3.7514170960E-01
                       6.8404303170E-01  6.4654370120E-01  6.2500000000E-01
                       6.8402572850E-01  6.4648341750E-01  8.7485829040E-01
                       5.8456192480E-01  7.2980046450E-01 -1.4894238300E-04
                       5.8456192480E-01  7.2980046450E-01  2.5014894238E-01
                       5.8471367080E-01  7.3006899960E-01  5.0005484590E-01
                       5.8471367080E-01  7.3006899960E-01  7.4994515410E-01
                       4.1543807520E-01  2.7019953550E-01 -1.4894238300E-04
                       4.1543807520E-01  2.7019953550E-01  2.5014894238E-01
                       4.1528632920E-01  2.6993100040E-01  5.0005484590E-01
                       4.1528632920E-01  2.6993100040E-01  7.4994515410E-01
                       2.7004840860E-01  5.8517817730E-01  1.2500000000E-01
                       2.7008225590E-01  5.8534144030E-01  3.7507783020E-01
                       2.7010248440E-01  5.8533634980E-01  6.2500000000E-01
                       2.7008225590E-01  5.8534144030E-01  8.7492216980E-01
                       7.2995159140E-01  4.1482182270E-01  1.2500000000E-01
                       7.2991774410E-01  4.1465855970E-01  3.7507783020E-01
                       7.2989751560E-01  4.1466365020E-01  6.2500000000E-01
                       7.2991774410E-01  4.1465855970E-01  8.7492216980E-01
                       2.5446159180E-01  8.9276336190E-01 -3.1643550331E-04
                       2.5446159180E-01  8.9276336190E-01  2.5031643550E-01
                       2.5571542770E-01  8.9317450770E-01  5.0005659290E-01
                       2.5571542770E-01  8.9317450770E-01  7.4994340710E-01
                       7.4553840820E-01  1.0723663810E-01 -3.1643550331E-04
                       7.4553840820E-01  1.0723663810E-01  2.5031643550E-01
                       7.4428457230E-01  1.0682549230E-01  5.0005659290E-01
                       7.4428457230E-01  1.0682549230E-01  7.4994340710E-01
                       1.0773134640E-01  2.5687632930E-01  1.2500000000E-01
                       1.0769903260E-01  2.5694112110E-01  3.7506771280E-01
                       1.0760380700E-01  2.5688604040E-01  6.2500000000E-01
                       1.0769903260E-01  2.5694112110E-01  8.7493228720E-01
                       8.9226865360E-01  7.4312367070E-01  1.2500000000E-01
                       8.9230096740E-01  7.4305887890E-01  3.7506771280E-01
                       8.9239619300E-01  7.4311395960E-01  6.2500000000E-01
                       8.9230096740E-01  7.4305887890E-01  8.7493228720E-01
            znucl       63.00000   38.00000    3.00000   13.00000    7.00000    8.00000
 
================================================================================
 
 chkinp: Checking input parameters for consistency.
 
================================================================================
== DATASET  1 ==================================================================
-   mpi_nproc: 40, omp_nthreads: -1 (-1 if OMP is not activated)
 

--- !DatasetInfo
iteration_state: {dtset: 1, }
dimensions: {natom: 72, nkpt: 2, mband: 204, nsppol: 2, nspinor: 1, nspden: 2, mpw: 1897, }
cutoff_energies: {ecut:  15.0, pawecutdg:  30.0, }
electrons: {nelect:   3.59000000E+02, charge:   0.00000000E+00, occopt:   2.00000000E+00, tsmear:   1.00000000E-02, }
meta: {optdriver: 0, ionmov: 22, optcell: 0, iscf: 17, paral_kgb: 1, }
...

 Real(R)+Recip(G) space primitive vectors, cartesian coordinates (Bohr,Bohr^-1):
 R(1)= 15.1390449  0.0381571  0.0000000  G(1)=  0.0660548 -0.0001665  0.0000000
 R(2)=  0.0381571 15.1389269  0.0000000  G(2)= -0.0001665  0.0660553  0.0000000
 R(3)=  0.0000000  0.0000000 24.2860350  G(3)=  0.0000000  0.0000000  0.0411759
 Unit cell volume ucvol=  5.5660541E+03 bohr^3
 Angles (23,13,12)=  9.00000000E+01  9.00000000E+01  8.97111780E+01 degrees
 
 Coarse grid specifications (used for wave-functions):
 
 getcut: wavevector=  0.0000  0.0000  0.0000  ngfft=  60  60  90
         ecut(hartree)=     16.538   => boxcut(ratio)=   2.02435
 
 Fine grid specifications (used for densities):
 
 getcut: wavevector=  0.0000  0.0000  0.0000  ngfft=  80  80 150
         ecut(hartree)=     33.075   => boxcut(ratio)=   2.04118
 
--- Pseudopotential description ------------------------------------------------
- pspini: atom type   1  psp file is /home/ucl/modl/jbouq/psps_paw_pbe/Eu.GGA_PBE-JTH.xml
- pspatm: opening atomic psp file    /home/ucl/modl/jbouq/psps_paw_pbe/Eu.GGA_PBE-JTH.xml
- pspatm : Reading pseudopotential header in XML form from /home/ucl/modl/jbouq/psps_paw_pbe/Eu.GGA_PBE-JTH.xml
 Pseudopotential format is: paw10
 basis_size (lnmax)=  8 (lmn_size= 32), orbitals=   0   0   1   1   2   2   3   3
 Spheres core radius: rc_sph= 2.52170005
 1 radial meshes are used:
  - mesh 1: r(i)=AA*[exp(BB*(i-1))-1], size=1500 , AA= 0.14034E-03 BB= 0.88415E-02
 Shapefunction is SIN type: shapef(r)=[sin(pi*r/rshp)/(pi*r/rshp)]**2
 Radius for shape functions =  2.30830346
 mmax= 1500
 Radial grid used for partial waves is grid 1
 Radial grid used for projectors is grid 1
 Radial grid used for (t)core density is grid 1
 Radial grid used for Vloc is grid 1
 Radial grid used for pseudo valence density is grid 1
 Mesh size for Vloc has been set to 1343 to avoid numerical noise.
 Compensation charge density is not taken into account in XC energy/potential
 pspatm: atomic psp has been read  and splines computed
 
- pspini: atom type   2  psp file is /home/ucl/modl/jbouq/psps_paw_pbe/Sr.GGA_PBE-JTH.xml
- pspatm: opening atomic psp file    /home/ucl/modl/jbouq/psps_paw_pbe/Sr.GGA_PBE-JTH.xml
- pspatm : Reading pseudopotential header in XML form from /home/ucl/modl/jbouq/psps_paw_pbe/Sr.GGA_PBE-JTH.xml
 Pseudopotential format is: paw10
 basis_size (lnmax)=  6 (lmn_size= 18), orbitals=   0   0   1   1   2   2
 Spheres core radius: rc_sph= 2.20669967
 1 radial meshes are used:
  - mesh 1: r(i)=AA*[exp(BB*(i-1))-1], size=1500 , AA= 0.22443E-03 BB= 0.85283E-02
 Shapefunction is SIN type: shapef(r)=[sin(pi*r/rshp)/(pi*r/rshp)]**2
 Radius for shape functions =  1.81361893
 mmax= 1500
 Radial grid used for partial waves is grid 1
 Radial grid used for projectors is grid 1
 Radial grid used for (t)core density is grid 1
 Radial grid used for Vloc is grid 1
 Radial grid used for pseudo valence density is grid 1
 Mesh size for Vloc has been set to 1337 to avoid numerical noise.
 Compensation charge density is not taken into account in XC energy/potential
 pspatm: atomic psp has been read  and splines computed
 
- pspini: atom type   3  psp file is /home/ucl/modl/jbouq/psps_paw_pbe/Li.GGA_PBE-JTH.xml
- pspatm: opening atomic psp file    /home/ucl/modl/jbouq/psps_paw_pbe/Li.GGA_PBE-JTH.xml
- pspatm : Reading pseudopotential header in XML form from /home/ucl/modl/jbouq/psps_paw_pbe/Li.GGA_PBE-JTH.xml
 Pseudopotential format is: paw10
 basis_size (lnmax)=  5 (lmn_size=  9), orbitals=   0   0   0   1   1
 Spheres core radius: rc_sph= 1.60264751
 1 radial meshes are used:
  - mesh 1: r(i)=AA*[exp(BB*(i-1))-1], size=2001 , AA= 0.17851E-02 BB= 0.53552E-02
 Shapefunction is BESSEL type: shapef(r,l)=aa(1,l)*jl(q(1,l)*r)+aa(2,l)*jl(q(2,l)*r)
 Radius for shape functions =  1.30023672
 mmax= 2001
 Radial grid used for partial waves is grid 1
 Radial grid used for projectors is grid 1
 Radial grid used for (t)core density is grid 1
 Radial grid used for Vloc is grid 1
 Radial grid used for pseudo valence density is grid 1
 Mesh size for Vloc has been set to 1742 to avoid numerical noise.
 Compensation charge density is not taken into account in XC energy/potential
 pspatm: atomic psp has been read  and splines computed
 
- pspini: atom type   4  psp file is /home/ucl/modl/jbouq/psps_paw_pbe/Al.GGA_PBE-JTH.xml
- pspatm: opening atomic psp file    /home/ucl/modl/jbouq/psps_paw_pbe/Al.GGA_PBE-JTH.xml
- pspatm : Reading pseudopotential header in XML form from /home/ucl/modl/jbouq/psps_paw_pbe/Al.GGA_PBE-JTH.xml
 Pseudopotential format is: paw10
 basis_size (lnmax)=  4 (lmn_size=  8), orbitals=   0   0   1   1
 Spheres core radius: rc_sph= 1.90363307
 1 radial meshes are used:
  - mesh 1: r(i)=AA*[exp(BB*(i-1))-1], size=2001 , AA= 0.46377E-03 BB= 0.60291E-02
 Shapefunction is SIN type: shapef(r)=[sin(pi*r/rshp)/(pi*r/rshp)]**2
 Radius for shape functions =  1.60786206
 mmax= 2001
 Radial grid used for partial waves is grid 1
 Radial grid used for projectors is grid 1
 Radial grid used for (t)core density is grid 1
 Radial grid used for Vloc is grid 1
 Radial grid used for pseudo valence density is grid 1
 Mesh size for Vloc has been set to 1771 to avoid numerical noise.
 Compensation charge density is not taken into account in XC energy/potential
 pspatm: atomic psp has been read  and splines computed
 
- pspini: atom type   5  psp file is /home/ucl/modl/jbouq/psps_paw_pbe/N.GGA_PBE-JTH.xml
- pspatm: opening atomic psp file    /home/ucl/modl/jbouq/psps_paw_pbe/N.GGA_PBE-JTH.xml
- pspatm : Reading pseudopotential header in XML form from /home/ucl/modl/jbouq/psps_paw_pbe/N.GGA_PBE-JTH.xml
 Pseudopotential format is: paw10
 basis_size (lnmax)=  4 (lmn_size=  8), orbitals=   0   0   1   1
 Spheres core radius: rc_sph= 1.20000000
 1 radial meshes are used:
  - mesh 1: r(i)=AA*[exp(BB*(i-1))-1], size= 787 , AA= 0.19344E-02 BB= 0.13541E-01
 Shapefunction is SIN type: shapef(r)=[sin(pi*r/rshp)/(pi*r/rshp)]**2
 Radius for shape functions =  1.00599851
 mmax=  787
 Radial grid used for partial waves is grid 1
 Radial grid used for projectors is grid 1
 Radial grid used for (t)core density is grid 1
 Radial grid used for Vloc is grid 1
 Radial grid used for pseudo valence density is grid 1
 Mesh size for Vloc has been set to  683 to avoid numerical noise.
 Compensation charge density is not taken into account in XC energy/potential
 pspatm: atomic psp has been read  and splines computed
 
- pspini: atom type   6  psp file is /home/ucl/modl/jbouq/psps_paw_pbe/O.GGA_PBE-JTH.xml
- pspatm: opening atomic psp file    /home/ucl/modl/jbouq/psps_paw_pbe/O.GGA_PBE-JTH.xml
- pspatm : Reading pseudopotential header in XML form from /home/ucl/modl/jbouq/psps_paw_pbe/O.GGA_PBE-JTH.xml
 Pseudopotential format is: paw10
 basis_size (lnmax)=  4 (lmn_size=  8), orbitals=   0   0   1   1
 Spheres core radius: rc_sph= 1.41465230
 1 radial meshes are used:
  - mesh 1: r(i)=AA*[exp(BB*(i-1))-1], size=2001 , AA= 0.72565E-03 BB= 0.58052E-02
 Shapefunction is SIN type: shapef(r)=[sin(pi*r/rshp)/(pi*r/rshp)]**2
 Radius for shape functions =  1.20231231
 mmax= 2001
 Radial grid used for partial waves is grid 1
 Radial grid used for projectors is grid 1
 Radial grid used for (t)core density is grid 1
 Radial grid used for Vloc is grid 1
 Radial grid used for pseudo valence density is grid 1
 Mesh size for Vloc has been set to 1762 to avoid numerical noise.
 Compensation charge density is not taken into account in XC energy/potential
 pspatm: atomic psp has been read  and splines computed
 
   1.43215553E+05                                ecore*ucvol(ha*bohr**3)
--------------------------------------------------------------------------------
 
_setup2: Arith. and geom. avg. npw (full set) are    1897.000    1897.000
 
 
 ******************************************
 DFT+U Method used: FLL
 ******************************************
 
================================================================================
 
=== [ionmov=22] Limited-memory Broyden-Fletcher-Goldfard-Shanno method      
================================================================================
 
--- Iteration: (   1/1000) Internal Cycle: (1/1)
--------------------------------------------------------------------------------
 
---SELF-CONSISTENT-FIELD CONVERGENCE--------------------------------------------

--- !BeginCycle
iteration_state: {dtset: 1, itime: 1, icycle: 1, }
solver: {iscf: 17, nstep: 100, nline: 4, wfoptalg: 114, }
tolerances: {toldff: 1.00E-05, }
...
 
     iter   Etot(hartree)      deltaE(h)  residm     nres2    diffor    maxfor
 ETOT  1  -889.41999535634    -8.894E+02 8.509E-04 1.334E+01 4.361E-03 4.361E-03
 ETOT  2  -889.61834138165    -1.983E-01 4.105E-05 3.487E+01 2.301E-02 1.865E-02
 ETOT  3  -889.44078505822     1.776E-01 8.264E-04 2.385E+00 1.991E-02 4.260E-03
 ETOT  4  -889.44669796241    -5.913E-03 5.867E-05 5.279E-01 2.874E-03 4.760E-03
 ETOT  5  -889.44928495202    -2.587E-03 5.849E-05 5.665E-02 1.722E-03 6.001E-03
 ETOT  6  -889.44966027384    -3.753E-04 7.343E-05 1.079E-02 5.764E-04 6.197E-03
 ETOT  7  -889.44971683127    -5.656E-05 9.296E-06 6.163E-03 2.869E-04 6.094E-03
 ETOT  8  -889.44974812073    -3.129E-05 3.726E-06 3.410E-03 8.175E-05 6.053E-03
 ETOT  9  -889.44976085715    -1.274E-05 2.444E-06 1.186E-03 6.575E-05 6.075E-03
 ETOT 10  -889.44976880789    -7.951E-06 2.744E-06 2.516E-04 7.732E-05 6.106E-03
 ETOT 11  -889.44977655441    -7.747E-06 1.510E-06 8.038E-05 4.931E-05 6.138E-03
 ETOT 12  -889.44977929167    -2.737E-06 4.572E-07 4.011E-05 2.033E-05 6.127E-03
 ETOT 13  -889.44978180149    -2.510E-06 3.635E-07 1.676E-05 1.155E-05 6.136E-03
 ETOT 14  -889.44978276070    -9.592E-07 2.410E-07 5.476E-06 5.652E-06 6.135E-03
 ETOT 15  -889.44978343486    -6.742E-07 1.620E-07 1.735E-06 4.863E-06 6.134E-03
 
 At SCF step   15, forces are converged : 
  for the second time, max diff in force=  4.863E-06 < toldff=  1.000E-05
 
 Cartesian components of stress tensor (hartree/bohr^3)
  sigma(1 1)=  3.57825594E-06  sigma(3 2)=  0.00000000E+00
  sigma(2 2)=  1.58951896E-05  sigma(3 1)=  0.00000000E+00
  sigma(3 3)=  2.28716120E-05  sigma(2 1)= -3.56932473E-06
 

--- !ResultsGS
iteration_state: {dtset: 1, itime: 1, icycle: 1, }
comment   : Summary of ground state results
lattice_vectors:
- [ 15.1390449,   0.0381571,   0.0000000, ]
- [  0.0381571,  15.1389269,   0.0000000, ]
- [  0.0000000,   0.0000000,  24.2860350, ]
lattice_lengths: [  15.13909,   15.13897,   24.28603, ]
lattice_angles: [ 90.000,  90.000,  89.711, ] # degrees, (23, 13, 12)
lattice_volume:   5.5660541E+03
convergence: {deltae: -6.742E-07, res2:  1.735E-06, residm:  1.620E-07, diffor:  4.863E-06, }
etotal    :  -8.89449783E+02
entropy   :   0.00000000E+00
fermie    :   2.82066806E-01
cartesian_stress_tensor: # hartree/bohr^3
- [  3.57825594E-06,  -3.56932473E-06,   0.00000000E+00, ]
- [ -3.56932473E-06,   1.58951896E-05,   0.00000000E+00, ]
- [  0.00000000E+00,   0.00000000E+00,   2.28716120E-05, ]
pressure_GPa:  -4.1528E-01
xred      :
- [  5.0000E-01,  -2.1684E-19,   1.2500E-01, Eu]
- [  5.0000E-01,  -2.1684E-19,   3.7513E-01, Sr]
- [  5.0000E-01,  -2.1684E-19,   6.2500E-01, Sr]
- [  5.0000E-01,  -2.1684E-19,   8.7487E-01, Sr]
- [ -5.5511E-17,   5.0000E-01,  -1.5730E-05, Sr]
- [ -5.5511E-17,   5.0000E-01,   2.5002E-01, Sr]
- [ -5.5511E-17,   5.0000E-01,   5.0003E-01, Sr]
- [ -5.5511E-17,   5.0000E-01,   7.4997E-01, Sr]
- [  1.2546E-01,   8.2283E-01,   1.2500E-01, Li]
- [  1.2557E-01,   8.2274E-01,   3.7523E-01, Li]
- [  1.2587E-01,   8.2291E-01,   6.2500E-01, Li]
- [  1.2557E-01,   8.2274E-01,   8.7477E-01, Li]
- [  8.7454E-01,   1.7717E-01,   1.2500E-01, Li]
- [  8.7443E-01,   1.7726E-01,   3.7523E-01, Li]
- [  8.7413E-01,   1.7709E-01,   6.2500E-01, Li]
- [  8.7443E-01,   1.7726E-01,   8.7477E-01, Li]
- [  1.7687E-01,   1.2631E-01,  -3.2528E-05, Li]
- [  1.7687E-01,   1.2631E-01,   2.5003E-01, Li]
- [  1.7716E-01,   1.2640E-01,   5.0004E-01, Li]
- [  1.7716E-01,   1.2640E-01,   7.4996E-01, Li]
- [  8.2313E-01,   8.7369E-01,  -3.2528E-05, Li]
- [  8.2313E-01,   8.7369E-01,   2.5003E-01, Li]
- [  8.2284E-01,   8.7360E-01,   5.0004E-01, Li]
- [  8.2284E-01,   8.7360E-01,   7.4996E-01, Li]
- [  3.5283E-01,   6.8439E-01,  -2.2091E-06, Al]
- [  3.5283E-01,   6.8439E-01,   2.5000E-01, Al]
- [  3.5309E-01,   6.8443E-01,   5.0002E-01, Al]
- [  3.5309E-01,   6.8443E-01,   7.4998E-01, Al]
- [  6.4717E-01,   3.1561E-01,  -2.2091E-06, Al]
- [  6.4717E-01,   3.1561E-01,   2.5000E-01, Al]
- [  6.4691E-01,   3.1557E-01,   5.0002E-01, Al]
- [  6.4691E-01,   3.1557E-01,   7.4998E-01, Al]
- [  3.1610E-01,   3.5324E-01,   1.2500E-01, Al]
- [  3.1597E-01,   3.5352E-01,   3.7514E-01, Al]
- [  3.1596E-01,   3.5346E-01,   6.2500E-01, Al]
- [  3.1597E-01,   3.5352E-01,   8.7486E-01, Al]
- [  6.8390E-01,   6.4676E-01,   1.2500E-01, Al]
- [  6.8403E-01,   6.4648E-01,   3.7514E-01, Al]
- [  6.8404E-01,   6.4654E-01,   6.2500E-01, Al]
- [  6.8403E-01,   6.4648E-01,   8.7486E-01, Al]
- [  5.8456E-01,   7.2980E-01,  -1.4894E-04,  N]
- [  5.8456E-01,   7.2980E-01,   2.5015E-01,  N]
- [  5.8471E-01,   7.3007E-01,   5.0005E-01,  N]
- [  5.8471E-01,   7.3007E-01,   7.4995E-01,  N]
- [  4.1544E-01,   2.7020E-01,  -1.4894E-04,  N]
- [  4.1544E-01,   2.7020E-01,   2.5015E-01,  N]
- [  4.1529E-01,   2.6993E-01,   5.0005E-01,  N]
- [  4.1529E-01,   2.6993E-01,   7.4995E-01,  N]
- [  2.7005E-01,   5.8518E-01,   1.2500E-01,  N]
- [  2.7008E-01,   5.8534E-01,   3.7508E-01,  N]
- [  2.7010E-01,   5.8534E-01,   6.2500E-01,  N]
- [  2.7008E-01,   5.8534E-01,   8.7492E-01,  N]
- [  7.2995E-01,   4.1482E-01,   1.2500E-01,  N]
- [  7.2992E-01,   4.1466E-01,   3.7508E-01,  N]
- [  7.2990E-01,   4.1466E-01,   6.2500E-01,  N]
- [  7.2992E-01,   4.1466E-01,   8.7492E-01,  N]
- [  2.5446E-01,   8.9276E-01,  -3.1644E-04,  O]
- [  2.5446E-01,   8.9276E-01,   2.5032E-01,  O]
- [  2.5572E-01,   8.9317E-01,   5.0006E-01,  O]
- [  2.5572E-01,   8.9317E-01,   7.4994E-01,  O]
- [  7.4554E-01,   1.0724E-01,  -3.1644E-04,  O]
- [  7.4554E-01,   1.0724E-01,   2.5032E-01,  O]
- [  7.4428E-01,   1.0683E-01,   5.0006E-01,  O]
- [  7.4428E-01,   1.0683E-01,   7.4994E-01,  O]
- [  1.0773E-01,   2.5688E-01,   1.2500E-01,  O]
- [  1.0770E-01,   2.5694E-01,   3.7507E-01,  O]
- [  1.0760E-01,   2.5689E-01,   6.2500E-01,  O]
- [  1.0770E-01,   2.5694E-01,   8.7493E-01,  O]
- [  8.9227E-01,   7.4312E-01,   1.2500E-01,  O]
- [  8.9230E-01,   7.4306E-01,   3.7507E-01,  O]
- [  8.9240E-01,   7.4311E-01,   6.2500E-01,  O]
- [  8.9230E-01,   7.4306E-01,   8.7493E-01,  O]
cartesian_forces: # hartree/bohr
- [ -1.50583635E-21,   1.99523316E-20,   0.00000000E+00, ]
- [ -1.50583635E-21,   1.99523316E-20,  -1.16971464E-03, ]
- [ -1.50583635E-21,   1.99523316E-20,   0.00000000E+00, ]
- [ -1.50583635E-21,   1.99523316E-20,   1.16971464E-03, ]
- [ -1.50583635E-21,   1.99523316E-20,  -5.65015148E-04, ]
- [ -1.50583635E-21,   1.99523316E-20,   5.65015148E-04, ]
- [ -1.50583635E-21,   1.99523316E-20,   1.15508142E-03, ]
- [ -1.50583635E-21,   1.99523316E-20,  -1.15508142E-03, ]
- [ -1.78201980E-04,  -3.88304185E-04,   0.00000000E+00, ]
- [  9.75591740E-05,   2.07033241E-04,   1.12919643E-03, ]
- [  1.86155140E-04,   1.97372446E-04,   0.00000000E+00, ]
- [  9.75591740E-05,   2.07033241E-04,  -1.12919643E-03, ]
- [  1.78201980E-04,   3.88304185E-04,   0.00000000E+00, ]
- [ -9.75591740E-05,  -2.07033241E-04,   1.12919643E-03, ]
- [ -1.86155140E-04,  -1.97372446E-04,   0.00000000E+00, ]
- [ -9.75591740E-05,  -2.07033241E-04,  -1.12919643E-03, ]
- [ -2.29955433E-04,   6.18508455E-04,  -7.86300804E-04, ]
- [ -2.29955433E-04,   6.18508455E-04,   7.86300804E-04, ]
- [  4.62288190E-04,  -2.30002790E-04,   3.46834313E-04, ]
- [  4.62288190E-04,  -2.30002790E-04,  -3.46834313E-04, ]
- [  2.29955433E-04,  -6.18508455E-04,  -7.86300804E-04, ]
- [  2.29955433E-04,  -6.18508455E-04,   7.86300804E-04, ]
- [ -4.62288190E-04,   2.30002790E-04,   3.46834313E-04, ]
- [ -4.62288190E-04,   2.30002790E-04,  -3.46834313E-04, ]
- [ -4.60458739E-04,  -7.74580982E-04,  -3.94346737E-04, ]
- [ -4.60458739E-04,  -7.74580982E-04,   3.94346737E-04, ]
- [  9.91072904E-04,   1.62038535E-03,   1.34234716E-03, ]
- [  9.91072904E-04,   1.62038535E-03,  -1.34234716E-03, ]
- [  4.60458739E-04,   7.74580982E-04,  -3.94346737E-04, ]
- [  4.60458739E-04,   7.74580982E-04,   3.94346737E-04, ]
- [ -9.91072904E-04,  -1.62038535E-03,   1.34234716E-03, ]
- [ -9.91072904E-04,  -1.62038535E-03,  -1.34234716E-03, ]
- [  2.78586391E-04,   2.14137803E-04,   0.00000000E+00, ]
- [ -7.39435476E-05,  -1.66046326E-03,   3.65189902E-03, ]
- [  6.14672259E-04,  -3.68506041E-04,   0.00000000E+00, ]
- [ -7.39435476E-05,  -1.66046326E-03,  -3.65189902E-03, ]
- [ -2.78586391E-04,  -2.14137803E-04,   0.00000000E+00, ]
- [  7.39435476E-05,   1.66046326E-03,   3.65189902E-03, ]
- [ -6.14672259E-04,   3.68506041E-04,   0.00000000E+00, ]
- [  7.39435476E-05,   1.66046326E-03,  -3.65189902E-03, ]
- [ -1.31947100E-03,   4.46496426E-03,   5.31084267E-03, ]
- [ -1.31947100E-03,   4.46496426E-03,  -5.31084267E-03, ]
- [  5.88013571E-04,  -1.86127610E-03,  -4.94307643E-04, ]
- [  5.88013571E-04,  -1.86127610E-03,   4.94307643E-04, ]
- [  1.31947100E-03,  -4.46496426E-03,   5.31084267E-03, ]
- [  1.31947100E-03,  -4.46496426E-03,  -5.31084267E-03, ]
- [ -5.88013571E-04,   1.86127610E-03,  -4.94307643E-04, ]
- [ -5.88013571E-04,   1.86127610E-03,   4.94307643E-04, ]
- [ -2.28848983E-04,  -5.35991294E-04,   0.00000000E+00, ]
- [  3.46404907E-04,  -4.81197437E-04,  -2.75492988E-03, ]
- [ -5.38701199E-04,  -2.23819329E-04,   0.00000000E+00, ]
- [  3.46404907E-04,  -4.81197437E-04,   2.75492988E-03, ]
- [  2.28848983E-04,   5.35991294E-04,   0.00000000E+00, ]
- [ -3.46404907E-04,   4.81197437E-04,  -2.75492988E-03, ]
- [  5.38701199E-04,   2.23819329E-04,   0.00000000E+00, ]
- [ -3.46404907E-04,   4.81197437E-04,   2.75492988E-03, ]
- [  2.50384623E-03,   1.86308862E-03,   6.13434819E-03, ]
- [  2.50384623E-03,   1.86308862E-03,  -6.13434819E-03, ]
- [ -1.88277432E-03,  -1.28321198E-03,  -4.24564297E-04, ]
- [ -1.88277432E-03,  -1.28321198E-03,   4.24564297E-04, ]
- [ -2.50384623E-03,  -1.86308862E-03,   6.13434819E-03, ]
- [ -2.50384623E-03,  -1.86308862E-03,  -6.13434819E-03, ]
- [  1.88277432E-03,   1.28321198E-03,  -4.24564297E-04, ]
- [  1.88277432E-03,   1.28321198E-03,   4.24564297E-04, ]
- [ -1.83340548E-04,  -5.01230560E-04,   0.00000000E+00, ]
- [ -2.94514024E-04,   1.29953654E-04,  -1.43225865E-03, ]
- [ -3.26813146E-04,   3.24468742E-04,   0.00000000E+00, ]
- [ -2.94514024E-04,   1.29953654E-04,   1.43225865E-03, ]
- [  1.83340548E-04,   5.01230560E-04,   0.00000000E+00, ]
- [  2.94514024E-04,  -1.29953654E-04,  -1.43225865E-03, ]
- [  3.26813146E-04,  -3.24468742E-04,   0.00000000E+00, ]
- [  2.94514024E-04,  -1.29953654E-04,   1.43225865E-03, ]
force_length_stats: {min:   2.00090750E-20, max:   7.06271615E-03, mean:   2.00519702E-03, }
...

 Integrated electronic and magnetization densities in atomic spheres:
 ---------------------------------------------------------------------
 Radius=ratsph(iatom), smearing ratsm=  0.0000. Diff(up-dn)=approximate z local magnetic moment.
 Atom    Radius    up_density   dn_density  Total(up+dn)  Diff(up-dn)
    1   2.52170    10.430921     4.020582     14.451503     6.410340
    2   2.20670     3.698228     3.656801      7.355029     0.041428
    3   2.20670     3.676546     3.665783      7.342329     0.010762
    4   2.20670     3.699259     3.657971      7.357231     0.041288
    5   2.20670     3.667831     3.665691      7.333522     0.002140
    6   2.20670     3.669707     3.667560      7.337267     0.002147
    7   2.20670     3.666859     3.665939      7.332798     0.000920
    8   2.20670     3.668731     3.667808      7.336539     0.000923
    9   1.60265     1.054518     1.054281      2.108799     0.000237
   10   1.60265     1.054167     1.054358      2.108525    -0.000192
   11   1.60265     1.054751     1.054735      2.109486     0.000017
   12   1.60265     1.054232     1.054422      2.108654    -0.000191
   13   1.60265     1.054518     1.054281      2.108799     0.000237
   14   1.60265     1.054167     1.054358      2.108525    -0.000192
   15   1.60265     1.054751     1.054735      2.109486     0.000017
   16   1.60265     1.054232     1.054422      2.108654    -0.000191
   17   1.60265     1.054212     1.054009      2.108221     0.000202
   18   1.60265     1.055363     1.055160      2.110523     0.000203
   19   1.60265     1.054525     1.054511      2.109035     0.000014
   20   1.60265     1.055295     1.055281      2.110576     0.000014
   21   1.60265     1.054212     1.054009      2.108221     0.000202
   22   1.60265     1.055363     1.055160      2.110523     0.000203
   23   1.60265     1.054525     1.054511      2.109035     0.000014
   24   1.60265     1.055295     1.055281      2.110576     0.000014
   25   1.90363     0.447783     0.446814      0.894597     0.000969
   26   1.90363     0.449410     0.448444      0.897855     0.000966
   27   1.90363     0.447923     0.447728      0.895651     0.000195
   28   1.90363     0.448174     0.447980      0.896155     0.000194
   29   1.90363     0.447783     0.446814      0.894597     0.000969
   30   1.90363     0.449410     0.448444      0.897855     0.000966
   31   1.90363     0.447923     0.447728      0.895651     0.000195
   32   1.90363     0.448174     0.447980      0.896155     0.000194
   33   1.90363     0.450694     0.448447      0.899141     0.002247
   34   1.90363     0.449432     0.448937      0.898369     0.000495
   35   1.90363     0.449667     0.449036      0.898703     0.000631
   36   1.90363     0.450049     0.449518      0.899566     0.000531
   37   1.90363     0.450694     0.448447      0.899141     0.002247
   38   1.90363     0.449432     0.448937      0.898369     0.000495
   39   1.90363     0.449667     0.449036      0.898703     0.000631
   40   1.90363     0.450049     0.449518      0.899566     0.000531
   41   1.20000     1.273354     1.285460      2.558814    -0.012106
   42   1.20000     1.267258     1.279314      2.546572    -0.012056
   43   1.20000     1.280238     1.280247      2.560486    -0.000009
   44   1.20000     1.277354     1.277363      2.554717    -0.000010
   45   1.20000     1.273354     1.285460      2.558814    -0.012106
   46   1.20000     1.267258     1.279314      2.546572    -0.012056
   47   1.20000     1.280238     1.280247      2.560486    -0.000009
   48   1.20000     1.277354     1.277363      2.554717    -0.000010
   49   1.20000     1.280714     1.279734      2.560447     0.000980
   50   1.20000     1.277559     1.279105      2.556664    -0.001545
   51   1.20000     1.280353     1.280310      2.560663     0.000043
   52   1.20000     1.278877     1.280427      2.559304    -0.001549
   53   1.20000     1.280714     1.279734      2.560447     0.000980
   54   1.20000     1.277559     1.279105      2.556664    -0.001545
   55   1.20000     1.280353     1.280310      2.560663     0.000043
   56   1.20000     1.278877     1.280427      2.559304    -0.001549
   57   1.41465     2.279320     2.291526      4.570846    -0.012205
   58   1.41465     2.283086     2.295327      4.578413    -0.012241
   59   1.41465     2.288483     2.288620      4.577103    -0.000136
   60   1.41465     2.291860     2.291996      4.583857    -0.000136
   61   1.41465     2.279320     2.291526      4.570846    -0.012205
   62   1.41465     2.283086     2.295327      4.578413    -0.012241
   63   1.41465     2.288483     2.288620      4.577103    -0.000136
   64   1.41465     2.291860     2.291996      4.583857    -0.000136
   65   1.41465     2.284263     2.283171      4.567434     0.001091
   66   1.41465     2.285115     2.285001      4.570115     0.000114
   67   1.41465     2.284268     2.284094      4.568362     0.000174
   68   1.41465     2.284790     2.284676      4.569466     0.000114
   69   1.41465     2.284263     2.283171      4.567434     0.001091
   70   1.41465     2.285115     2.285001      4.570115     0.000114
   71   1.41465     2.284268     2.284094      4.568362     0.000174
   72   1.41465     2.284790     2.284676      4.569466     0.000114
 ---------------------------------------------------------------------
  Sum:            117.232259   110.808200    228.040460     6.424059
 Total magnetization (from the atomic spheres):             6.424059
 Total magnetization (exact up - dn):                       7.000006
 
 PAW TEST:
 ==== Compensation charge inside spheres ============
 The following values must be close to each other ...
 Compensation charge over spherical meshes =     28.228214390941666
 Compensation charge over fine fft grid    =     28.228687579514578
 
 ==== Results concerning PAW augmentation regions ====
 
 Total pseudopotential strength Dij (hartree):
 Atom #  1 - Spin component 1
  -0.67131  -0.08780   0.00000   0.00000   0.00000   0.00000   0.00000   0.00000  -0.00002   0.00000   0.00003   0.00000 ...
  -0.08780  -0.09100   0.00000   0.00000   0.00000   0.00000   0.00000   0.00000   0.00000   0.00000   0.00016   0.00000 ...
   0.00000   0.00000  -0.75179   0.00000   0.00007   0.21465   0.00000  -0.00021   0.00000   0.00000   0.00000   0.00000 ...
   0.00000   0.00000   0.00000  -0.75046   0.00000   0.00000   0.21204   0.00000   0.00000   0.00000   0.00000   0.00000 ...
   0.00000   0.00000   0.00007   0.00000  -0.75204  -0.00021   0.00000   0.21501   0.00000   0.00000   0.00000   0.00000 ...
   0.00000   0.00000   0.21465   0.00000  -0.00021   0.81682   0.00000   0.00010   0.00000   0.00000   0.00000   0.00000 ...
   0.00000   0.00000   0.00000   0.21204   0.00000   0.00000   0.81918   0.00000   0.00000   0.00000   0.00000   0.00000 ...
   0.00000   0.00000  -0.00021   0.00000   0.21501   0.00010   0.00000   0.81638   0.00000   0.00000   0.00000   0.00000 ...
  -0.00002   0.00000   0.00000   0.00000   0.00000   0.00000   0.00000   0.00000  -0.19528   0.00000  -0.00001   0.00000 ...
   0.00000   0.00000   0.00000   0.00000   0.00000   0.00000   0.00000   0.00000   0.00000  -0.19534   0.00000  -0.00000 ...
   0.00003   0.00016   0.00000   0.00000   0.00000   0.00000   0.00000   0.00000  -0.00001   0.00000  -0.19461   0.00000 ...
   0.00000   0.00000   0.00000   0.00000   0.00000   0.00000   0.00000   0.00000   0.00000  -0.00000   0.00000  -0.19536 ...
   ...  only 12  components have been written...
 Atom #  1 - Spin component 2
  -0.60206  -0.08008   0.00000   0.00000   0.00000   0.00000   0.00000   0.00000  -0.00000   0.00000  -0.00031   0.00000 ...
  -0.08008  -0.09033   0.00000   0.00000   0.00000   0.00000   0.00000   0.00000   0.00001   0.00000   0.00004   0.00000 ...
   0.00000   0.00000  -0.69396   0.00000   0.00014   0.15125   0.00000  -0.00032   0.00000   0.00000   0.00000   0.00000 ...
   0.00000   0.00000   0.00000  -0.69245   0.00000   0.00000   0.14681   0.00000   0.00000   0.00000   0.00000   0.00000 ...
   0.00000   0.00000   0.00014   0.00000  -0.69412  -0.00032   0.00000   0.15191   0.00000   0.00000   0.00000   0.00000 ...
   0.00000   0.00000   0.15125   0.00000  -0.00032   0.88036   0.00000   0.00017   0.00000   0.00000   0.00000   0.00000 ...
   0.00000   0.00000   0.00000   0.14681   0.00000   0.00000   0.88251   0.00000   0.00000   0.00000   0.00000   0.00000 ...
   0.00000   0.00000  -0.00032   0.00000   0.15191   0.00017   0.00000   0.88004   0.00000   0.00000   0.00000   0.00000 ...
  -0.00000   0.00001   0.00000   0.00000   0.00000   0.00000   0.00000   0.00000  -0.18232   0.00000  -0.00001   0.00000 ...
   0.00000   0.00000   0.00000   0.00000   0.00000   0.00000   0.00000   0.00000   0.00000  -0.18331   0.00000   0.00002 ...
  -0.00031   0.00004   0.00000   0.00000   0.00000   0.00000   0.00000   0.00000  -0.00001   0.00000  -0.18125   0.00000 ...
   0.00000   0.00000   0.00000   0.00000   0.00000   0.00000   0.00000   0.00000   0.00000   0.00002   0.00000  -0.18330 ...
   ...  only 12  components have been written...
 Atom # 72 - Spin component 1
   0.61091  -1.74604   0.00029  -0.00001   0.00065  -0.00204   0.00010  -0.00460
  -1.74604   5.05177  -0.00078   0.00004  -0.00175   0.00553  -0.00028   0.01253
   0.00029  -0.00078  -0.29736  -0.00000  -0.00030   0.90485   0.00001   0.00157
  -0.00001   0.00004  -0.00000  -0.29709   0.00000   0.00001   0.90336  -0.00002
   0.00065  -0.00175  -0.00030   0.00000  -0.29781   0.00157  -0.00002   0.90718
  -0.00204   0.00553   0.90485   0.00001   0.00157   0.04666  -0.00007  -0.00796
   0.00010  -0.00028   0.00001   0.90336  -0.00002  -0.00007   0.05452   0.00011
  -0.00460   0.01253   0.00157  -0.00002   0.90718  -0.00796   0.00011   0.03508
 Atom # 72 - Spin component 2
   0.61090  -1.74602   0.00029  -0.00001   0.00065  -0.00205   0.00010  -0.00459
  -1.74602   5.05170  -0.00078   0.00004  -0.00175   0.00555  -0.00028   0.01250
   0.00029  -0.00078  -0.29735  -0.00000  -0.00030   0.90483   0.00001   0.00158
  -0.00001   0.00004  -0.00000  -0.29709   0.00001   0.00001   0.90337  -0.00003
   0.00065  -0.00175  -0.00030   0.00001  -0.29780   0.00158  -0.00003   0.90714
  -0.00205   0.00555   0.90483   0.00001   0.00158   0.04675  -0.00004  -0.00800
   0.00010  -0.00028   0.00001   0.90337  -0.00003  -0.00004   0.05447   0.00015
  -0.00459   0.01250   0.00158  -0.00003   0.90714  -0.00800   0.00015   0.03527
 
 
 Augmentation waves occupancies Rhoij:
 Atom #  1 - Spin component 1
   1.04764  -0.11219   0.00000   0.00000   0.00000   0.00000   0.00000   0.00000   0.00101   0.00000  -0.01808   0.00000 ...
  -0.11219   0.16957   0.00000   0.00000   0.00000   0.00000   0.00000   0.00000  -0.00440   0.00000   0.03078   0.00000 ...
   0.00000   0.00000   1.00792   0.00000   0.00032  -0.00903   0.00000  -0.00026   0.00000   0.00000   0.00000   0.00000 ...
   0.00000   0.00000   0.00000   1.00572   0.00000   0.00000  -0.00735   0.00000   0.00000   0.00000   0.00000   0.00000 ...
   0.00000   0.00000   0.00032   0.00000   1.00784  -0.00026   0.00000  -0.00874   0.00000   0.00000   0.00000   0.00000 ...
   0.00000   0.00000  -0.00903   0.00000  -0.00026   0.00547   0.00000   0.00001   0.00000   0.00000   0.00000   0.00000 ...
   0.00000   0.00000   0.00000  -0.00735   0.00000   0.00000   0.00509   0.00000   0.00000   0.00000   0.00000   0.00000 ...
   0.00000   0.00000  -0.00026   0.00000  -0.00874   0.00001   0.00000   0.00463   0.00000   0.00000   0.00000   0.00000 ...
   0.00101  -0.00440   0.00000   0.00000   0.00000   0.00000   0.00000   0.00000   0.05435   0.00000  -0.01193   0.00000 ...
   0.00000   0.00000   0.00000   0.00000   0.00000   0.00000   0.00000   0.00000   0.00000   0.08485   0.00000  -0.00388 ...
  -0.01808   0.03078   0.00000   0.00000   0.00000   0.00000   0.00000   0.00000  -0.01193   0.00000   0.65559   0.00000 ...
   0.00000   0.00000   0.00000   0.00000   0.00000   0.00000   0.00000   0.00000   0.00000  -0.00388   0.00000   0.07324 ...
   ...  only 12  components have been written...
 Atom #  1 - Spin component 2
   0.98802   0.02258   0.00000   0.00000   0.00000   0.00000   0.00000   0.00000  -0.00036   0.00000  -0.00944   0.00000 ...
   0.02258   0.12382   0.00000   0.00000   0.00000   0.00000   0.00000   0.00000  -0.00196   0.00000  -0.00129   0.00000 ...
   0.00000   0.00000   1.00031   0.00000   0.00047   0.01100   0.00000  -0.00033   0.00000   0.00000   0.00000   0.00000 ...
   0.00000   0.00000   0.00000   0.99917   0.00000   0.00000   0.01033   0.00000   0.00000   0.00000   0.00000   0.00000 ...
   0.00000   0.00000   0.00047   0.00000   1.00005  -0.00033   0.00000   0.01171   0.00000   0.00000   0.00000   0.00000 ...
   0.00000   0.00000   0.01100   0.00000  -0.00033   0.00451   0.00000   0.00002   0.00000   0.00000   0.00000   0.00000 ...
   0.00000   0.00000   0.00000   0.01033   0.00000   0.00000   0.00404   0.00000   0.00000   0.00000   0.00000   0.00000 ...
   0.00000   0.00000  -0.00033   0.00000   0.01171   0.00002   0.00000   0.00387   0.00000   0.00000   0.00000   0.00000 ...
  -0.00036  -0.00196   0.00000   0.00000   0.00000   0.00000   0.00000   0.00000   0.03580   0.00000   0.00012   0.00000 ...
   0.00000   0.00000   0.00000   0.00000   0.00000   0.00000   0.00000   0.00000   0.00000   0.06003   0.00000  -0.00189 ...
  -0.00944  -0.00129   0.00000   0.00000   0.00000   0.00000   0.00000   0.00000   0.00012   0.00000   0.01277   0.00000 ...
   0.00000   0.00000   0.00000   0.00000   0.00000   0.00000   0.00000   0.00000   0.00000  -0.00189   0.00000   0.05194 ...
   ...  only 12  components have been written...
 Atom # 72 - Spin component 1
   0.98016   0.01462  -0.00051  -0.00053  -0.00042  -0.00066  -0.00000  -0.00146
   0.01462   0.00038  -0.00189   0.00010  -0.00427  -0.00009   0.00000  -0.00017
  -0.00051  -0.00189   0.91251  -0.00006   0.00427   0.02054   0.00000   0.00131
  -0.00053   0.00010  -0.00006   0.92749   0.00038   0.00000   0.02018  -0.00001
  -0.00042  -0.00427   0.00427   0.00038   0.93149   0.00131  -0.00000   0.02295
  -0.00066  -0.00009   0.02054   0.00000   0.00131   0.00049   0.00000   0.00006
  -0.00000   0.00000   0.00000   0.02018  -0.00000   0.00000   0.00046  -0.00000
  -0.00146  -0.00017   0.00131  -0.00001   0.02295   0.00006  -0.00000   0.00061
 Atom # 72 - Spin component 2
   0.98010   0.01463  -0.00060  -0.00053  -0.00032  -0.00066   0.00000  -0.00146
   0.01463   0.00038  -0.00187   0.00010  -0.00429  -0.00009   0.00000  -0.00017
  -0.00060  -0.00187   0.91252  -0.00010   0.00433   0.02055   0.00001   0.00131
  -0.00053   0.00010  -0.00010   0.92773   0.00030   0.00000   0.02018  -0.00001
  -0.00032  -0.00429   0.00433   0.00030   0.93136   0.00131  -0.00001   0.02296
  -0.00066  -0.00009   0.02055   0.00000   0.00131   0.00049   0.00000   0.00006
   0.00000   0.00000   0.00001   0.02018  -0.00001   0.00000   0.00046  -0.00000
  -0.00146  -0.00017   0.00131  -0.00001   0.02296   0.00006  -0.00000   0.00061
 
 "PAW+U" part of augmentation waves occupancies Rhoij:
 Atom #  1 - L=3 ONLY - Spin component 1
   0.99220   0.00000   0.00048   0.00000   0.00597   0.00000   0.00029  -0.00069   0.00000   0.00017   0.00000   0.00230   0.00000   0.00004
   0.00000   0.60658   0.00000  -0.00100   0.00000  -0.40463   0.00000   0.00000   0.01148   0.00000  -0.00006   0.00000   0.01806   0.00000
   0.00048   0.00000   0.99215   0.00000  -0.00042   0.00000   0.00436   0.00021   0.00000  -0.00048   0.00000   0.00007   0.00000   0.00152
   0.00000  -0.00100   0.00000   1.00340   0.00000   0.00127   0.00000   0.00000  -0.00045   0.00000   0.00311   0.00000   0.00096   0.00000
   0.00597   0.00000  -0.00042   0.00000   0.98973   0.00000   0.00251   0.00228   0.00000   0.00005   0.00000  -0.00138   0.00000   0.00096
   0.00000  -0.40463   0.00000   0.00127   0.00000   0.53865   0.00000   0.00000   0.01808   0.00000   0.00134   0.00000   0.01433   0.00000
   0.00029   0.00000   0.00436   0.00000   0.00251   0.00000   0.99360   0.00003   0.00000   0.00153   0.00000   0.00093   0.00000  -0.00033
  -0.00069   0.00000   0.00021   0.00000   0.00228   0.00000   0.00003   0.00269   0.00000   0.00004   0.00000   0.00043   0.00000  -0.00014
   0.00000   0.01148   0.00000  -0.00045   0.00000   0.01808   0.00000   0.00000   0.00416   0.00000  -0.00040   0.00000   0.00200   0.00000
   0.00017   0.00000  -0.00048   0.00000   0.00005   0.00000   0.00153   0.00004   0.00000   0.00283   0.00000   0.00029   0.00000   0.00014
   0.00000  -0.00006   0.00000   0.00311   0.00000   0.00134   0.00000   0.00000  -0.00040   0.00000   0.00262   0.00000   0.00037   0.00000
   0.00230   0.00000   0.00007   0.00000  -0.00138   0.00000   0.00093   0.00043   0.00000   0.00029   0.00000   0.00283   0.00000   0.00010
   0.00000   0.01806   0.00000   0.00096   0.00000   0.01433   0.00000   0.00000   0.00200   0.00000   0.00037   0.00000   0.00458   0.00000
   0.00004   0.00000   0.00152   0.00000   0.00096   0.00000  -0.00033  -0.00014   0.00000   0.00014   0.00000   0.00010   0.00000   0.00245
 Atom #  1 - L=3 ONLY - Spin component 2
   0.01321   0.00000  -0.00003   0.00000   0.00254   0.00000  -0.00063   0.00517   0.00000   0.00001   0.00000   0.00099   0.00000  -0.00026
   0.00000   0.03217   0.00000  -0.00139   0.00000   0.02316   0.00000   0.00000   0.01157   0.00000  -0.00064   0.00000   0.00791   0.00000
  -0.00003   0.00000   0.01333   0.00000   0.00105   0.00000   0.00140   0.00001   0.00000   0.00517   0.00000   0.00048   0.00000   0.00049
   0.00000  -0.00139   0.00000   0.01269   0.00000   0.00211   0.00000   0.00000  -0.00064   0.00000   0.00516   0.00000   0.00078   0.00000
   0.00254   0.00000   0.00105   0.00000   0.01333   0.00000   0.00027   0.00100   0.00000   0.00048   0.00000   0.00518   0.00000   0.00015
   0.00000   0.02316   0.00000   0.00211   0.00000   0.03619   0.00000   0.00000   0.00791   0.00000   0.00084   0.00000   0.01301   0.00000
  -0.00063   0.00000   0.00140   0.00000   0.00027   0.00000   0.01174  -0.00026   0.00000   0.00047   0.00000   0.00014   0.00000   0.00463
   0.00517   0.00000   0.00001   0.00000   0.00100   0.00000  -0.00026   0.00203   0.00000   0.00001   0.00000   0.00039   0.00000  -0.00011
   0.00000   0.01157   0.00000  -0.00064   0.00000   0.00791   0.00000   0.00000   0.00420   0.00000  -0.00029   0.00000   0.00272   0.00000
   0.00001   0.00000   0.00517   0.00000   0.00048   0.00000   0.00047   0.00001   0.00000   0.00202   0.00000   0.00021   0.00000   0.00016
   0.00000  -0.00064   0.00000   0.00516   0.00000   0.00084   0.00000   0.00000  -0.00029   0.00000   0.00212   0.00000   0.00032   0.00000
   0.00099   0.00000   0.00048   0.00000   0.00518   0.00000   0.00014   0.00039   0.00000   0.00021   0.00000   0.00202   0.00000   0.00007
   0.00000   0.00791   0.00000   0.00078   0.00000   0.01301   0.00000   0.00000   0.00272   0.00000   0.00032   0.00000   0.00473   0.00000
  -0.00026   0.00000   0.00049   0.00000   0.00015   0.00000   0.00463  -0.00011   0.00000   0.00016   0.00000   0.00007   0.00000   0.00183
 
 ---------- DFT+U DATA --------------------------------------------------- 
 
 ====== For Atom     1, occupations for correlated orbitals. lpawu =   3
 
 Atom   1. Occ. for lpawu and for spin  1 =   6.02335
 Atom   1. Occ. for lpawu and for spin  2 =   0.02854
 => On atom   1,  local Mag. for lpawu is       -5.994803
 
 == Occupation matrix for correlated orbitals:
 
 Occupation matrix for spin  1
     0.99028    0.00000   -0.00002    0.00000   -0.00020    0.00000   -0.00028
     0.00000    0.57456    0.00000   -0.00143    0.00000   -0.45208    0.00000
    -0.00002    0.00000    0.98998    0.00000    0.00032    0.00000   -0.00024
     0.00000   -0.00143    0.00000    0.98871    0.00000   -0.00131    0.00000
    -0.00020    0.00000    0.00032    0.00000    0.99055    0.00000   -0.00029
     0.00000   -0.45208    0.00000   -0.00131    0.00000    0.49954    0.00000
    -0.00028    0.00000   -0.00024    0.00000   -0.00029    0.00000    0.98973
 
 
 Occupation matrix for spin  2
     0.00265    0.00000   -0.00002    0.00000    0.00052    0.00000   -0.00012
     0.00000    0.00740    0.00000   -0.00020    0.00000    0.00571    0.00000
    -0.00002    0.00000    0.00270    0.00000    0.00016    0.00000    0.00034
     0.00000   -0.00020    0.00000    0.00243    0.00000    0.00044    0.00000
[...]
                       2.5436342877E+00  2.8262977223E+00  1.1249076078E+01
                       5.4979893605E+00  5.2091213745E+00  1.6064520240E+00
                       5.4877951181E+00  5.2050692056E+00  4.8154441619E+00
                       5.4902316363E+00  5.1912932487E+00  8.0322601200E+00
                       5.4877951181E+00  5.2050692056E+00  1.1249076078E+01
                       4.6981272331E+00  5.8976196512E+00  1.6136936201E-02
                       4.6981272331E+00  5.8976196512E+00  3.1967671118E+00
                       4.6995714229E+00  5.8566265005E+00  6.4256633912E+00
                       4.6995714229E+00  5.8566265005E+00  9.6388568489E+00
                       3.3333021727E+00  2.1337472767E+00  1.6136936201E-02
                       3.3333021727E+00  2.1337472767E+00  3.1967671118E+00
                       3.3318579829E+00  2.1747404274E+00  6.4256633912E+00
                       3.3318579829E+00  2.1747404274E+00  9.6388568489E+00
                       2.1797261610E+00  4.6768281707E+00  1.6064520240E+00
                       2.1907893082E+00  4.6891666653E+00  4.8026781106E+00
                       2.1753161749E+00  4.6960857954E+00  8.0322601200E+00
                       2.1907893082E+00  4.6891666653E+00  1.1261842129E+01
                       5.8517032448E+00  3.3545387572E+00  1.6064520240E+00
                       5.8406400976E+00  3.3422002627E+00  4.8026781106E+00
                       5.8561132309E+00  3.3352811326E+00  8.0322601200E+00
                       5.8406400976E+00  3.3422002627E+00  1.1261842129E+01
                       2.0758004671E+00  7.1660608627E+00  4.2371781069E-02
                       2.0758004671E+00  7.1660608627E+00  3.1705322669E+00
                       2.0458665251E+00  7.1495959061E+00  6.4173682572E+00
                       2.0458665251E+00  7.1495959061E+00  9.6471519829E+00
                       5.9556289387E+00  8.6530606527E-01  4.2371781069E-02
                       5.9556289387E+00  8.6530606527E-01  3.1705322669E+00
                       5.9855628808E+00  8.8177102187E-01  6.4173682572E+00
                       5.9855628808E+00  8.8177102187E-01  9.6471519829E+00
                       8.5710671669E-01  2.0586468034E+00  1.6064520240E+00
                       8.6688282883E-01  2.0589832048E+00  4.8093201910E+00
                       8.6845895755E-01  2.0650104438E+00  8.0322601200E+00
                       8.6688282883E-01  2.0589832048E+00  1.1255200049E+01
                       7.1743226891E+00  5.9727201245E+00  1.6064520240E+00
                       7.1645465770E+00  5.9723837231E+00  4.8093201910E+00
                       7.1629704483E+00  5.9663564841E+00  8.0322601200E+00
                       7.1645465770E+00  5.9723837231E+00  1.1255200049E+01
            xcart      7.5695224642E+00  1.9078552100E-02  3.0357543710E+00
                       7.5695224642E+00  1.9078552100E-02  9.0660747800E+00
                       7.5695224642E+00  1.9078552100E-02  1.5178771855E+01
                       7.5695224642E+00  1.9078552100E-02  2.1291468930E+01
                       1.9078552100E-02  7.5694634311E+00 -1.1961775783E-03
                       1.9078552100E-02  7.5694634311E+00  6.0727049196E+00
                       1.9078552100E-02  7.5694634311E+00  1.2147702524E+01
                       1.9078552100E-02  7.5694634311E+00  1.8209841185E+01
                       1.9249800926E+00  1.2464698115E+01  3.0357543710E+00
                       1.9397672691E+00  1.2469345817E+01  9.0978522914E+00
                       1.9300113850E+00  1.2454597276E+01  1.5178771855E+01
                       1.9397672691E+00  1.2469345817E+01  2.1259691418E+01
                       1.3252221940E+01  2.7123858510E+00  3.0357543710E+00
                       1.3237434764E+01  2.7077381497E+00  9.0978522914E+00
                       1.3247190648E+01  2.7224866906E+00  1.5178771855E+01
                       1.3237434764E+01  2.7077381497E+00  2.1259691418E+01
                       2.6822560773E+00  1.9229963741E+00  1.0099751953E-02
                       2.6822560773E+00  1.9229963741E+00  6.0614089900E+00
                       2.6892246143E+00  1.9146589911E+00  1.2144566844E+01
                       2.6892246143E+00  1.9146589911E+00  1.8212976865E+01
                       1.2494945955E+01  1.3254087592E+01  1.0099751953E-02
                       1.2494945955E+01  1.3254087592E+01  6.0614089900E+00
                       1.2487977418E+01  1.3262424975E+01  1.2144566844E+01
                       1.2487977418E+01  1.3262424975E+01  1.8212976865E+01
                       5.3780579783E+00  1.0377400413E+01  2.7491297572E-02
                       5.3780579783E+00  1.0377400413E+01  6.0440174444E+00
                       5.3720271570E+00  1.0376874120E+01  1.2135509270E+01
                       5.3720271570E+00  1.0376874120E+01  1.8222034440E+01
                       9.7991440543E+00  4.7996835538E+00  2.7491297572E-02
                       9.7991440543E+00  4.7996835538E+00  6.0440174444E+00
                       9.8051748756E+00  4.8002098462E+00  1.2135509270E+01
                       9.8051748756E+00  4.8002098462E+00  1.8222034440E+01
                       4.7875078597E+00  5.3332711757E+00  3.0357543710E+00
                       4.8067721860E+00  5.3409286651E+00  9.0998706741E+00
                       4.8021678339E+00  5.3669614509E+00  1.5178771855E+01
                       4.8067721860E+00  5.3409286651E+00  2.1257673036E+01
                       1.0389694173E+01  9.8438127908E+00  3.0357543710E+00
                       1.0370429847E+01  9.8361553014E+00  9.0998706741E+00
                       1.0375034199E+01  9.8101225156E+00  1.5178771855E+01
                       1.0370429847E+01  9.8361553014E+00  2.1257673036E+01
                       8.8781738080E+00  1.1144885977E+01  3.0494390044E-02
                       8.8781738080E+00  1.1144885977E+01  6.0410143519E+00
                       8.8809029313E+00  1.1067420149E+01  1.2142744031E+01
                       8.8809029313E+00  1.1067420149E+01  1.8214799678E+01
                       6.2990282246E+00  4.0321979897E+00  3.0494390044E-02
                       6.2990282246E+00  4.0321979897E+00  6.0410143519E+00
                       6.2962991013E+00  4.1096638179E+00  1.2142744031E+01
                       6.2962991013E+00  4.1096638179E+00  1.8214799678E+01
                       4.1190854890E+00  8.8379244132E+00  3.0357543710E+00
                       4.1399918073E+00  8.8612407888E+00  9.0757463335E+00
                       4.1107518230E+00  8.8743160498E+00  1.5178771855E+01
                       4.1399918073E+00  8.8612407888E+00  2.1281797376E+01
                       1.1058116544E+01  6.3391595533E+00  3.0357543710E+00
                       1.1037210225E+01  6.3158431777E+00  9.0757463335E+00
                       1.1066450210E+01  6.3027679167E+00  1.5178771855E+01
                       1.1037210225E+01  6.3158431777E+00  2.1281797376E+01
                       3.9226943894E+00  1.3541892482E+01  8.0071061983E-02
                       3.9226943894E+00  1.3541892482E+01  5.9914376800E+00
                       3.8661274368E+00  1.3510778223E+01  1.2127068500E+01
                       3.8661274368E+00  1.3510778223E+01  1.8230475210E+01
                       1.1254507643E+01  1.6351914845E+00  8.0071061983E-02
                       1.1254507643E+01  1.6351914845E+00  5.9914376800E+00
                       1.1311074596E+01  1.6663057433E+00  1.2127068500E+01
                       1.1311074596E+01  1.6663057433E+00  1.8230475210E+01
                       1.6196969612E+00  3.8902786627E+00  3.0357543710E+00
                       1.6381711358E+00  3.8909143693E+00  9.0882980463E+00
                       1.6411495874E+00  3.9023042003E+00  1.5178771855E+01
                       1.6381711358E+00  3.8909143693E+00  2.1269245664E+01
                       1.3557505071E+01  1.1286805304E+01  3.0357543710E+00
                       1.3539030897E+01  1.1286169597E+01  9.0882980463E+00
                       1.3536052445E+01  1.1274779766E+01  1.5178771855E+01
                       1.3539030897E+01  1.1286169597E+01  2.1269245664E+01
             xred      5.0000000000E-01 -2.1026258012E-19  1.2500000000E-01
                       5.0000000000E-01 -2.1026258012E-19  3.7330403222E-01
                       5.0000000000E-01 -2.1026258012E-19  6.2500000000E-01
                       5.0000000000E-01 -2.1026258012E-19  8.7669596778E-01
                      -5.5505649310E-17  5.0000000000E-01 -4.9253720499E-05
                      -5.5505649310E-17  5.0000000000E-01  2.5004925372E-01
                      -5.5505649310E-17  5.0000000000E-01  5.0019291088E-01
                      -5.5505649310E-17  5.0000000000E-01  7.4980708912E-01
                       1.2507891489E-01  8.2303888377E-01  1.2500000000E-01
                       1.2605490486E-01  8.2334342718E-01  3.7461250070E-01
                       1.2541293750E-01  8.2237083213E-01  6.2500000000E-01
                       1.2605490486E-01  8.2334342718E-01  8.7538749930E-01
                       8.7492108511E-01  1.7696111623E-01  1.2500000000E-01
                       8.7394509514E-01  1.7665657282E-01  3.7461250070E-01
                       8.7458706250E-01  1.7762916787E-01  6.2500000000E-01
                       8.7394509514E-01  1.7665657282E-01  8.7538749930E-01
                       1.7685569055E-01  1.2657753687E-01  4.1586664792E-04
                       1.7685569055E-01  1.2657753687E-01  2.4958413335E-01
                       1.7731738384E-01  1.2602564835E-01  5.0006379635E-01
                       1.7731738384E-01  1.2602564835E-01  7.4993620365E-01
                       8.2314430945E-01  8.7342246313E-01  4.1586664792E-04
                       8.2314430945E-01  8.7342246313E-01  2.4958413335E-01
                       8.2268261616E-01  8.7397435165E-01  5.0006379635E-01
                       8.2268261616E-01  8.7397435165E-01  7.4993620365E-01
                       3.5351874240E-01  6.8458690999E-01  1.1319796586E-03
                       3.5351874240E-01  6.8458690999E-01  2.4886802034E-01
                       3.5312046542E-01  6.8455314965E-01  4.9969084232E-01
                       3.5312046542E-01  6.8455314965E-01  7.5030915768E-01
                       6.4648125760E-01  3.1541309001E-01  1.1319796586E-03
                       6.4648125760E-01  3.1541309001E-01  2.4886802034E-01
                       6.4687953458E-01  3.1544685035E-01  4.9969084232E-01
                       6.4687953458E-01  3.1544685035E-01  7.5030915768E-01
                       3.1534987169E-01  3.5149376083E-01  1.2500000000E-01
                       3.1662109773E-01  3.5199637130E-01  3.7469560948E-01
                       3.1631262408E-01  3.5371674134E-01  6.2500000000E-01
                       3.1662109773E-01  3.5199637130E-01  8.7530439052E-01
                       6.8465012831E-01  6.4850623917E-01  1.2500000000E-01
                       6.8337890227E-01  6.4800362870E-01  3.7469560948E-01
                       6.8368737592E-01  6.4628325866E-01  6.2500000000E-01
                       6.8337890227E-01  6.4800362870E-01  8.7530439052E-01
                       5.8459036219E-01  7.3470066951E-01  1.2556347747E-03
                       5.8459036219E-01  7.3470066951E-01  2.4874436523E-01
                       5.8478353103E-01  7.2958318664E-01  4.9998874034E-01
                       5.8478353103E-01  7.2958318664E-01  7.5001125966E-01
                       4.1540963781E-01  2.6529933049E-01  1.2556347747E-03
                       4.1540963781E-01  2.6529933049E-01  2.4874436523E-01
                       4.1521646897E-01  2.7041681336E-01  4.9998874034E-01
                       4.1521646897E-01  2.7041681336E-01  7.5001125966E-01
                       2.7061389099E-01  5.8310596590E-01  1.2500000000E-01
                       2.7199097143E-01  5.8464265542E-01  3.7370226739E-01
                       2.7005735368E-01  5.8551121383E-01  6.2500000000E-01
                       2.7199097143E-01  5.8464265542E-01  8.7629773261E-01
                       7.2938610901E-01  4.1689403410E-01  1.2500000000E-01
                       7.2800902857E-01  4.1535734458E-01  3.7370226739E-01
                       7.2994264632E-01  4.1448878617E-01  6.2500000000E-01
                       7.2800902857E-01  4.1535734458E-01  8.7629773261E-01
                       2.5685816196E-01  8.9386068388E-01  3.2970001933E-03
                       2.5685816196E-01  8.9386068388E-01  2.4670299981E-01
                       2.5312682426E-01  8.9181483994E-01  4.9934328580E-01
                       2.5312682426E-01  8.9181483994E-01  7.5065671420E-01
                       7.4314183804E-01  1.0613931612E-01  3.2970001933E-03
                       7.4314183804E-01  1.0613931612E-01  2.4670299981E-01
                       7.4687317574E-01  1.0818516006E-01  4.9934328580E-01
                       7.4687317574E-01  1.0818516006E-01  7.5065671420E-01
                       1.0634104680E-01  2.5670386228E-01  1.2500000000E-01
                       1.0756124858E-01  2.5674277833E-01  3.7421909580E-01
                       1.0775609329E-01  2.5749464115E-01  6.2500000000E-01
                       1.0756124858E-01  2.5674277833E-01  8.7578090420E-01
                       8.9365895320E-01  7.4329613772E-01  1.2500000000E-01
                       8.9243875142E-01  7.4325722167E-01  3.7421909580E-01
                       8.9224390671E-01  7.4250535885E-01  6.2500000000E-01
                       8.9243875142E-01  7.4325722167E-01  8.7578090420E-01
            znucl       63.00000   38.00000    3.00000   13.00000    7.00000    8.00000
 
================================================================================


- Timing analysis has been suppressed with timopt=0



================================================================================

 Suggested references for the acknowledgment of ABINIT usage.

 The users of ABINIT have little formal obligations with respect to the ABINIT group
 (those specified in the GNU General Public License, http://www.gnu.org/copyleft/gpl.txt).
 However, it is common practice in the scientific literature,
 to acknowledge the efforts of people that have made the research possible.
 In this spirit, please find below suggested citations of work written by ABINIT developers,
 corresponding to implementations inside of ABINIT that you have used in the present run.
 Note also that it will be of great value to readers of publications presenting these results,
 to read papers enabling them to understand the theoretical formalism and details
 of the ABINIT implementation.
 For information on why they are suggested, see also https://docs.abinit.org/theory/acknowledgments.
-
- [1] Gamma and beta cerium: DFT+U calculations of ground-state parameters.
- B. Amadon, F. Jollet and M. Torrent, Phys. Rev. B 77, 155104 (2008).
- Comment: DFT+U calculations, usepawu/=0. Strong suggestion to cite this paper.
- DOI and bibtex: see https://docs.abinit.org/theory/bibliography/#amadon2008a
-
- [2] Implementation of the Projector Augmented-Wave Method in the ABINIT code.
- M. Torrent, F. Jollet, F. Bottin, G. Zerah, and X. Gonze Comput. Mat. Science 42, 337, (2008).
- Comment: PAW calculations. Strong suggestion to cite this paper.
- DOI and bibtex: see https://docs.abinit.org/theory/bibliography/#torrent2008
-
- [3] Libxc: A library of exchange and correlation functionals for density functional theory.
- M.A.L. Marques, M.J.T. Oliveira, T. Burnus, Computer Physics Communications 183, 2227 (2012).
- Comment: to be cited when LibXC is used (negative value of ixc)
- Strong suggestion to cite this paper.
- DOI and bibtex: see https://docs.abinit.org/theory/bibliography/#marques2012
-
- [4] Large scale ab initio calculations based on three levels of parallelization
- F. Bottin, S. Leroux, A. Knyazev, G. Zerah, Comput. Mat. Science 42, 329, (2008).
- Comment: in case LOBPCG algorithm is used (wfoptalg=4/14/114).
- Strong suggestion to cite this paper in your publications.
- This paper is also available at http://www.arxiv.org/abs/0707.3405
- DOI and bibtex: see https://docs.abinit.org/theory/bibliography/#bottin2008
-
- [5] The Abinit project: Impact, environment and recent developments.
- Computer Phys. Comm. 248, 107042 (2020).
- X.Gonze, B. Amadon, G. Antonius, F.Arnardi, L.Baguet, J.-M.Beuken,
- J.Bieder, F.Bottin, J.Bouchet, E.Bousquet, N.Brouwer, F.Bruneval,
- G.Brunin, T.Cavignac, J.-B. Charraud, Wei Chen, M.Cote, S.Cottenier,
- J.Denier, G.Geneste, Ph.Ghosez, M.Giantomassi, Y.Gillet, O.Gingras,
- D.R.Hamann, G.Hautier, Xu He, N.Helbig, N.Holzwarth, Y.Jia, F.Jollet,
- W.Lafargue-Dit-Hauret, K.Lejaeghere, M.A.L.Marques, A.Martin, C.Martins,
- H.P.C. Miranda, F.Naccarato, K. Persson, G.Petretto, V.Planes, Y.Pouillon,
- S.Prokhorenko, F.Ricci, G.-M.Rignanese, A.H.Romero, M.M.Schmitt, M.Torrent,
- M.J.van Setten, B.Van Troeye, M.J.Verstraete, G.Zerah and J.W.Zwanzig
- Comment: the fifth generic paper describing the ABINIT project.
- Note that a version of this paper, that is not formatted for Computer Phys. Comm. 
- is available at https://www.abinit.org/sites/default/files/ABINIT20.pdf .
- The licence allows the authors to put it on the Web.
- DOI and bibtex: see https://docs.abinit.org/theory/bibliography/#gonze2020
-
- [6] ABINIT: Overview, and focus on selected capabilities
- J. Chem. Phys. 152, 124102 (2020).
- A. Romero, D.C. Allan, B. Amadon, G. Antonius, T. Applencourt, L.Baguet,
- J.Bieder, F.Bottin, J.Bouchet, E.Bousquet, F.Bruneval,
- G.Brunin, D.Caliste, M.Cote,
- J.Denier, C. Dreyer, Ph.Ghosez, M.Giantomassi, Y.Gillet, O.Gingras,
- D.R.Hamann, G.Hautier, F.Jollet, G. Jomard,
- A.Martin, 
- H.P.C. Miranda, F.Naccarato, G.Petretto, N.A. Pike, V.Planes,
- S.Prokhorenko, T. Rangel, F.Ricci, G.-M.Rignanese, M.Royo, M.Stengel, M.Torrent,
- M.J.van Setten, B.Van Troeye, M.J.Verstraete, J.Wiktor, J.W.Zwanziger, and X.Gonze.
- Comment: a global overview of ABINIT, with focus on selected capabilities .
- Note that a version of this paper, that is not formatted for J. Chem. Phys 
- is available at https://www.abinit.org/sites/default/files/ABINIT20_JPC.pdf .
- The licence allows the authors to put it on the Web.
- DOI and bibtex: see https://docs.abinit.org/theory/bibliography/#romero2020
-
- [7] Recent developments in the ABINIT software package.
- Computer Phys. Comm. 205, 106 (2016).
- X.Gonze, F.Jollet, F.Abreu Araujo, D.Adams, B.Amadon, T.Applencourt,
- C.Audouze, J.-M.Beuken, J.Bieder, A.Bokhanchuk, E.Bousquet, F.Bruneval
- D.Caliste, M.Cote, F.Dahm, F.Da Pieve, M.Delaveau, M.Di Gennaro,
- B.Dorado, C.Espejo, G.Geneste, L.Genovese, A.Gerossier, M.Giantomassi,
- Y.Gillet, D.R.Hamann, L.He, G.Jomard, J.Laflamme Janssen, S.Le Roux,
- A.Levitt, A.Lherbier, F.Liu, I.Lukacevic, A.Martin, C.Martins,
- M.J.T.Oliveira, S.Ponce, Y.Pouillon, T.Rangel, G.-M.Rignanese,
- A.H.Romero, B.Rousseau, O.Rubel, A.A.Shukri, M.Stankovski, M.Torrent,
- M.J.Van Setten, B.Van Troeye, M.J.Verstraete, D.Waroquier, J.Wiktor,
- B.Xu, A.Zhou, J.W.Zwanziger.
- Comment: the fourth generic paper describing the ABINIT project.
- Note that a version of this paper, that is not formatted for Computer Phys. Comm. 
- is available at https://www.abinit.org/sites/default/files/ABINIT16.pdf .
- The licence allows the authors to put it on the Web.
- DOI and bibtex: see https://docs.abinit.org/theory/bibliography/#gonze2016
-
- Proc.   0 individual time (sec): cpu=       1456.1  wall=       1519.9
 
================================================================================
 
 Calculation completed.
.Delivered   0 WARNINGs and   0 COMMENTs to log file.
+Overall time at end (sec) : cpu=      59422.5  wall=      60773.9
