  ABINIT 9.4.2
  
 DeprecationWarning: 

     The files file has been deprecated in Abinit9 and will be removed in Abinit10.
     Use the syntax `abinit t01.abi` where t01.abi is an input with pseudopotentials e.g.

            pseudos = "al.psp8, as.psp8"


  Give name for formatted input file: 
/scratch/users/j/b/jbouq/LumiWork_tuto/delta_SCF_no_BS/flow_deltaSCF/w0/t2/run.abi
  Give name for formatted output file:
/scratch/users/j/b/jbouq/LumiWork_tuto/delta_SCF_no_BS/flow_deltaSCF/w0/t2/run.abo
  Give root name for generic input files:
/scratch/users/j/b/jbouq/LumiWork_tuto/delta_SCF_no_BS/flow_deltaSCF/w0/t2/indata/in
  Give root name for generic output files:
/scratch/users/j/b/jbouq/LumiWork_tuto/delta_SCF_no_BS/flow_deltaSCF/w0/t2/outdata/out
  Give root name for generic temporary files:
/scratch/users/j/b/jbouq/LumiWork_tuto/delta_SCF_no_BS/flow_deltaSCF/w0/t2/tmpdata/tmp

.Version 9.4.2 of ABINIT 
.(MPI version, prepared for a x86_64_linux_intel19.1 computer) 

.Copyright (C) 1998-2021 ABINIT group . 
 ABINIT comes with ABSOLUTELY NO WARRANTY.
 It is free software, and you are welcome to redistribute it
 under certain conditions (GNU General Public License,
 see ~abinit/COPYING or http://www.gnu.org/copyleft/gpl.txt).

 ABINIT is a project of the Universite Catholique de Louvain,
 Corning Inc. and other collaborators, see ~abinit/doc/developers/contributors.txt .
 Please read https://docs.abinit.org/theory/acknowledgments for suggested
 acknowledgments of the ABINIT effort.
 For more information, see https://www.abinit.org .

.Starting date : Wed 25 Aug 2021.
- ( at 07h07 )
  
 
 ++++++++++++++++++++++++++++++++++++++++++++++++++++++++++++++++++++++++++++++
 
 === Build Information === 
  Version       : 9.4.2
  Build target  : x86_64_linux_intel19.1
  Build date    : 20210507
 
 === Compiler Suite === 
  C compiler       : intel19.1
  C++ compiler     : gnu19.1
  Fortran compiler : intel19.1
  CFLAGS           : -O2 -g-march=core-avx2
  CXXFLAGS         : -O2 -g-march=core-avx2
  FCFLAGS          : -O2 -g-march=core-avx2   -I/opt/cecisw/arch/easybuild/2020b/softwar ...
  FC_LDFLAGS       :   -static-intel -static-libgcc
 
 === Optimizations === 
  Debug level        : basic
  Optimization level : standard
  Architecture       : amd_epyc
 
 === Multicore === 
  Parallel build : yes
  Parallel I/O   : 
  openMP support : no
  GPU support    : 
 
 === Connectors / Fallbacks === 
  LINALG flavor  : mkl
  FFT flavor     : dfti
  HDF5           : yes
  NetCDF         : yes
  NetCDF Fortran : yes
  LibXC          : yes
  Wannier90      : no
 
 === Experimental features === 
  Exports             : 
  GW double-precision : 
 
 ++++++++++++++++++++++++++++++++++++++++++++++++++++++++++++++++++++++++++++++
 

 ++++++++++++++++++++++++++++++++++++++++++++++++++++++++++++++++++++++++++++++
 Default optimizations:
   --- None ---


 ++++++++++++++++++++++++++++++++++++++++++++++++++++++++++++++++++++++++++++++


 ++++++++++++++++++++++++++++++++++++++++++++++++++++++++++++++++++++++++++++++
 CPP options activated during the build:

                  CC_INTEL                   CXX_GNU                  FC_INTEL
 
                 HAVE_DFTI HAVE_FC_ALLOCATABLE_DT...             HAVE_FC_ASYNC
 
  HAVE_FC_COMMAND_ARGUMENT      HAVE_FC_COMMAND_LINE        HAVE_FC_CONTIGUOUS
 
           HAVE_FC_CPUTIME             HAVE_FC_ETIME              HAVE_FC_EXIT
 
             HAVE_FC_FLUSH             HAVE_FC_GAMMA            HAVE_FC_GETENV
 
            HAVE_FC_GETPID   HAVE_FC_IEEE_ARITHMETIC   HAVE_FC_IEEE_EXCEPTIONS
 
             HAVE_FC_IOMSG     HAVE_FC_ISO_C_BINDING  HAVE_FC_ISO_FORTRAN_2008
 
        HAVE_FC_LONG_LINES        HAVE_FC_MOVE_ALLOC  HAVE_FC_ON_THE_FLY_SHAPE
 
           HAVE_FC_PRIVATE         HAVE_FC_PROTECTED           HAVE_FC_SHIFTLR
 
         HAVE_FC_STREAM_IO            HAVE_FC_SYSTEM                 HAVE_HDF5
 
             HAVE_HDF5_MPI        HAVE_LIBPAW_ABINIT      HAVE_LIBTETRA_ABINIT
 
                HAVE_LIBXC         HAVE_LINALG_AXPBY        HAVE_LINALG_GEMM3M
 
         HAVE_LINALG_GEMMT  HAVE_LINALG_MKL_IMATCOPY   HAVE_LINALG_MKL_OMATADD
 
  HAVE_LINALG_MKL_OMATCOPY   HAVE_LINALG_MKL_THREADS     HAVE_LINALG_SCALAPACK
 
                  HAVE_MPI                 HAVE_MPI2       HAVE_MPI_IALLGATHER
 
       HAVE_MPI_IALLREDUCE        HAVE_MPI_IALLTOALL       HAVE_MPI_IALLTOALLV
 
           HAVE_MPI_IBCAST         HAVE_MPI_IGATHERV        HAVE_MPI_INTEGER16
 
               HAVE_MPI_IO HAVE_MPI_TYPE_CREATE_S...               HAVE_NETCDF
 
       HAVE_NETCDF_FORTRAN   HAVE_NETCDF_FORTRAN_MPI           HAVE_NETCDF_MPI
 
             HAVE_OS_LINUX         HAVE_TIMER_ABINIT                            
 ++++++++++++++++++++++++++++++++++++++++++++++++++++++++++++++++++++++++++++++

- input  file    -> /scratch/users/j/b/jbouq/LumiWork_tuto/delta_SCF_no_BS/flow_deltaSCF/w0/t2/run.abi
- output file    -> /scratch/users/j/b/jbouq/LumiWork_tuto/delta_SCF_no_BS/flow_deltaSCF/w0/t2/run.abo
- root for input  files -> /scratch/users/j/b/jbouq/LumiWork_tuto/delta_SCF_no_BS/flow_deltaSCF/w0/t2/indata/in
- root for output files -> /scratch/users/j/b/jbouq/LumiWork_tuto/delta_SCF_no_BS/flow_deltaSCF/w0/t2/outdata/out
 
 Netcdf library supports MPI-IO
-instrng: 248 lines of input have been read from file /scratch/users/j/b/jbouq/LumiWork_tuto/delta_SCF_no_BS/flow_deltaSCF/w0/t2/run.abi
 

 Please give name of formatted atomic psp file (and finish with a newline character)
 For atom type 1, psp file is /home/ucl/modl/jbouq/psps_paw_pbe/Eu.GGA_PBE-JTH.xml

 Please give name of formatted atomic psp file (and finish with a newline character)
 For atom type 2, psp file is /home/ucl/modl/jbouq/psps_paw_pbe/Sr.GGA_PBE-JTH.xml

 Please give name of formatted atomic psp file (and finish with a newline character)
 For atom type 3, psp file is /home/ucl/modl/jbouq/psps_paw_pbe/Li.GGA_PBE-JTH.xml

 Please give name of formatted atomic psp file (and finish with a newline character)
 For atom type 4, psp file is /home/ucl/modl/jbouq/psps_paw_pbe/Al.GGA_PBE-JTH.xml

 Please give name of formatted atomic psp file (and finish with a newline character)
 For atom type 5, psp file is /home/ucl/modl/jbouq/psps_paw_pbe/N.GGA_PBE-JTH.xml

 Please give name of formatted atomic psp file (and finish with a newline character)
 For atom type 6, psp file is /home/ucl/modl/jbouq/psps_paw_pbe/O.GGA_PBE-JTH.xml
- inpspheads : Reading pseudopotential header in XML form from 
-   /home/ucl/modl/jbouq/psps_paw_pbe/Eu.GGA_PBE-JTH.xml
- inpspheads : Reading pseudopotential header in XML form from 
-   /home/ucl/modl/jbouq/psps_paw_pbe/Sr.GGA_PBE-JTH.xml
- inpspheads : Reading pseudopotential header in XML form from 
-   /home/ucl/modl/jbouq/psps_paw_pbe/Li.GGA_PBE-JTH.xml
- inpspheads : Reading pseudopotential header in XML form from 
-   /home/ucl/modl/jbouq/psps_paw_pbe/Al.GGA_PBE-JTH.xml
- inpspheads : Reading pseudopotential header in XML form from 
-   /home/ucl/modl/jbouq/psps_paw_pbe/N.GGA_PBE-JTH.xml
- inpspheads : Reading pseudopotential header in XML form from 
-   /home/ucl/modl/jbouq/psps_paw_pbe/O.GGA_PBE-JTH.xml
 
 inpspheads: deduce mpsang = 4, n1xccc = 1.

======================================================= 
 invars1m : enter jdtset= 0
 
 symlatt: the Bravais lattice is oC (one-face-centered orthorhombic)
  xred   is defined in input file
 ingeo: takes atomic coordinates from input array xred
 
--- !COMMENT
src_file: m_ingeo.F90
src_line: 900
message: |
    The tolerance on symmetries =   1.000E-05 is bigger than 1.0e-8.
    In order to avoid spurious effects, the atomic coordinates have been
    symmetrized before storing them in the dataset internal variable.
    So, do not be surprised by the fact that your input variables (xcart, xred, ...)
    do not correspond exactly to the ones echoed by ABINIT, the latter being used to do the calculations.
    This is not a problem per se.
    Still, in order to avoid this symmetrization (e.g. for specific debugging/development), decrease tolsym to 1.0e-8 or lower,
    or (much preferred) use input primitive vectors that are accurate to better than 1.0e-8.
    This message will only be printed once, even if there are other datasets where tolsym is bigger than 1.0e-8.
...
 
 
 symlatt: the Bravais lattice is oC (one-face-centered orthorhombic)
 
 symlatt: the Bravais lattice is oC (one-face-centered orthorhombic)
 
--- !COMMENT
src_file: m_symfind.F90
src_line: 1018
message: |
    The Bravais lattice determined only from the primitive
    vectors, bravais(1)=  3, is more symmetric
    than the real one, iholohedry=  2, obtained by taking into
    account the atomic positions. Start deforming the primitive vector set.
...
 
 
 symlatt: the Bravais lattice is mP (primitive monoclinic)
 symspgr: spgroup=  10  P2/m   (=C2h^1)
 invars2: reading occ(nband*nkpt*nsppol) explicitly
getng is called for the coarse grid:
 For input ecut=  1.500000E+01 best grid ngfft=      54      60      90
       max ecut=  1.569671E+01
 
 ==== FFT mesh ====
  FFT mesh divisions ........................    54   60   90
  Augmented FFT divisions ...................    55   61   90
  FFT algorithm .............................   401
  FFT cache size ............................    16
 Relative gap for number of plane waves between process (%):  9.85
 Relative gap for number of plane waves between process (%):  9.72
 getmpw: optimal value of mpw= 1624
getng is called for the fine grid:
 Using supplied coarse mesh as initial guess.
 For input ecut=  3.000000E+01 best grid ngfft=      80      80     120
       max ecut=  3.012028E+01
 
 ==== FFT mesh ====
  FFT mesh divisions ........................    80   80  120
  Augmented FFT divisions ...................    81   81  120
  FFT algorithm .............................   401
  FFT cache size ............................    16
 
 Symmetries : space group P2/m (# 10); Bravais mP (primitive monocl.)
 
 getdim_nloc : deduce lmnmax  =  32, lnmax  =   8,
                      lmnmaxso=  32, lnmaxso=   8.
memory: analysis of memory needs
================================================================================
 Values of the parameters that define the memory need of the present run
     intxc =       0    ionmov =       0      iscf =      17    lmnmax =      32
     lnmax =       8     mgfft =      90  mpssoang =       4    mqgrid =    5989
     natom =      72  nloc_mem =       2    nspden =       2   nspinor =       1
    nsppol =       2      nsym =       4    n1xccc =       1    ntypat =       6
    occopt =       2   xclevel =       2
-    mband =         204        mffmem =           1         mkmem =           1
       mpw =        1624          nfft =       29160          nkpt =           2
Pmy_natom=        18
 PAW method is used; the additional fine FFT grid is defined by:
   mgfftf=       120    nfftf =     76800
================================================================================
P This job should need less than                     105.119 Mbytes of memory.
  Rough estimation (10% accuracy) of disk space for files :
_ WF disk file :    202.209 Mbytes ; DEN or POT disk file :      1.174 Mbytes.
================================================================================
 
 Biggest array : f_fftgr(disk), with     18.7520 MBytes.
 memana : allocated an array of     18.752 Mbytes, for testing purposes.
 memana: allocated     105.119Mbytes, for testing purposes. 
 The job will continue.
--------------------------------------------------------------------------------
------------- Echo of variables that govern the present computation ------------
--------------------------------------------------------------------------------
-
- outvars: echo of selected default values                                      
-   iomode0 =  0 , fftalg0 =512 , wfoptalg0 = 10
-
- outvars: echo of global parameters not present in the input file              
-  max_nthreads =    0
-
 -outvars: echo values of preprocessed input variables --------
 
 These variables are accessible in NetCDF format (
 /scratch/users/j/b/jbouq/LumiWork_tuto/delta_SCF_no_BS/flow_deltaSCF/w0/t2/outd
 ata/out_OUT.nc)

-          iomode           1
            acell      1.0000000000E+00  1.0000000000E+00  1.0000000000E+00 Bohr
              amu      1.51965000E+02  8.76200000E+01  6.94100000E+00
                       2.69815390E+01  1.40067400E+01  1.59994000E+01
           bandpp          68
          chkprim           0
      chksymbreak           0
     densfor_pred           6
           diemac      5.00000000E+00
             ecut      1.50000000E+01 Hartree
-          fftalg         401
           irdden           1
              ixc     -101130
            jpawu      2.57245278E-02  0.00000000E+00  0.00000000E+00  0.00000000E+00  0.00000000E+00  0.00000000E+00 Hartree
              kpt      2.50000000E-01  2.50000000E-01  2.50000000E-01
                      -2.50000000E-01  2.50000000E-01  2.50000000E-01
         kptrlatt        2    0    0      0    2    0      0    0    2
          kptrlen      3.02779499E+01
            lpawu           3      -1      -1      -1      -1      -1
P           mkmem           1
            natom          72
            nband         204     204     204     204
            ngfft          54      60      90
          ngfftdg          80      80     120
             nkpt           2
-           npfft          10
-        np_spkpt           4
           nspden           2
           nsppol           2
            nstep         100
             nsym           4
           ntypat           6
              occ      1.000000  1.000000  1.000000  1.000000  1.000000  1.000000
                       1.000000  1.000000  1.000000  1.000000  1.000000  1.000000
                       1.000000  1.000000  1.000000  1.000000  1.000000  1.000000
                       1.000000  1.000000  1.000000  1.000000  1.000000  1.000000
                       1.000000  1.000000  1.000000  1.000000  1.000000  1.000000
                       1.000000  1.000000  1.000000  1.000000  1.000000  1.000000
                       1.000000  1.000000  1.000000  1.000000  1.000000  1.000000
                       1.000000  1.000000  1.000000  1.000000  1.000000  1.000000
                       1.000000  1.000000  1.000000  1.000000  1.000000  1.000000
                       1.000000  1.000000  1.000000  1.000000  1.000000  1.000000
                       1.000000  1.000000  1.000000  1.000000  1.000000  1.000000
                       1.000000  1.000000  1.000000  1.000000  1.000000  1.000000
                       1.000000  1.000000  1.000000  1.000000  1.000000  1.000000
                       1.000000  1.000000  1.000000  1.000000  1.000000  1.000000
                       1.000000  1.000000  1.000000  1.000000  1.000000  1.000000
                       1.000000  1.000000  1.000000  1.000000  1.000000  1.000000
                       1.000000  1.000000  1.000000  1.000000  1.000000  1.000000
                       1.000000  1.000000  1.000000  1.000000  1.000000  1.000000
                       1.000000  1.000000  1.000000  1.000000  1.000000  1.000000
                       1.000000  1.000000  1.000000  1.000000  1.000000  1.000000
                       1.000000  1.000000  1.000000  1.000000  1.000000  1.000000
                       1.000000  1.000000  1.000000  1.000000  1.000000  1.000000
                       1.000000  1.000000  1.000000  1.000000  1.000000  1.000000
                       1.000000  1.000000  1.000000  1.000000  1.000000  1.000000
                       1.000000  1.000000  1.000000  1.000000  1.000000  1.000000
                       1.000000  1.000000  1.000000  1.000000  1.000000  1.000000
                       1.000000  1.000000  1.000000  1.000000  1.000000  1.000000
                       1.000000  1.000000  1.000000  1.000000  1.000000  1.000000
                       1.000000  1.000000  1.000000  1.000000  1.000000  1.000000
                       1.000000  1.000000  1.000000  1.000000  1.000000  1.000000
                       1.000000  1.000000  1.000000  0.000000  0.000000  0.000000
                       0.000000  0.000000  0.000000  0.000000  0.000000  0.000000
                       0.000000  0.000000  0.000000  0.000000  0.000000  0.000000
                       0.000000  0.000000  0.000000  0.000000  0.000000  0.000000
                       1.000000  1.000000  1.000000  1.000000  1.000000  1.000000
                       1.000000  1.000000  1.000000  1.000000  1.000000  1.000000
                       1.000000  1.000000  1.000000  1.000000  1.000000  1.000000
                       1.000000  1.000000  1.000000  1.000000  1.000000  1.000000
                       1.000000  1.000000  1.000000  1.000000  1.000000  1.000000
                       1.000000  1.000000  1.000000  1.000000  1.000000  1.000000
                       1.000000  1.000000  1.000000  1.000000  1.000000  1.000000
                       1.000000  1.000000  1.000000  1.000000  1.000000  1.000000
                       1.000000  1.000000  1.000000  1.000000  1.000000  1.000000
                       1.000000  1.000000  1.000000  1.000000  1.000000  1.000000
                       1.000000  1.000000  1.000000  1.000000  1.000000  1.000000
                       1.000000  1.000000  1.000000  1.000000  1.000000  1.000000
                       1.000000  1.000000  1.000000  1.000000  1.000000  1.000000
                       1.000000  1.000000  1.000000  1.000000  1.000000  1.000000
                       1.000000  1.000000  1.000000  1.000000  1.000000  1.000000
                       1.000000  1.000000  1.000000  1.000000  1.000000  1.000000
                       1.000000  1.000000  1.000000  1.000000  1.000000  1.000000
                       1.000000  1.000000  1.000000  1.000000  1.000000  1.000000
                       1.000000  1.000000  1.000000  1.000000  1.000000  1.000000
                       1.000000  1.000000  1.000000  1.000000  1.000000  1.000000
                       1.000000  1.000000  1.000000  1.000000  1.000000  1.000000
                       1.000000  1.000000  1.000000  1.000000  1.000000  1.000000
                       1.000000  1.000000  1.000000  1.000000  1.000000  1.000000
                       1.000000  1.000000  1.000000  1.000000  1.000000  1.000000
                       1.000000  1.000000  1.000000  1.000000  1.000000  1.000000
                       1.000000  1.000000  1.000000  1.000000  1.000000  1.000000
                       1.000000  1.000000  1.000000  1.000000  1.000000  1.000000
                       1.000000  1.000000  1.000000  1.000000  1.000000  1.000000
                       1.000000  1.000000  1.000000  1.000000  1.000000  1.000000
                       1.000000  1.000000  1.000000  1.000000  1.000000  1.000000
                       1.000000  1.000000  1.000000  0.000000  0.000000  0.000000
                       0.000000  0.000000  0.000000  0.000000  0.000000  0.000000
                       0.000000  0.000000  0.000000  0.000000  0.000000  0.000000
                       0.000000  0.000000  0.000000  0.000000  0.000000  0.000000
                       1.000000  1.000000  1.000000  1.000000  1.000000  1.000000
                       1.000000  1.000000  1.000000  1.000000  1.000000  1.000000
                       1.000000  1.000000  1.000000  1.000000  1.000000  1.000000
                       1.000000  1.000000  1.000000  1.000000  1.000000  1.000000
                       1.000000  1.000000  1.000000  1.000000  1.000000  1.000000
                       1.000000  1.000000  1.000000  1.000000  1.000000  1.000000
                       1.000000  1.000000  1.000000  1.000000  1.000000  1.000000
                       1.000000  1.000000  1.000000  1.000000  1.000000  1.000000
                       1.000000  1.000000  1.000000  1.000000  1.000000  1.000000
                       1.000000  1.000000  1.000000  1.000000  1.000000  1.000000
                       1.000000  1.000000  1.000000  1.000000  1.000000  1.000000
                       1.000000  1.000000  1.000000  1.000000  1.000000  1.000000
                       1.000000  1.000000  1.000000  1.000000  1.000000  1.000000
                       1.000000  1.000000  1.000000  1.000000  1.000000  1.000000
                       1.000000  1.000000  1.000000  1.000000  1.000000  1.000000
                       1.000000  1.000000  1.000000  1.000000  1.000000  1.000000
                       1.000000  1.000000  1.000000  1.000000  1.000000  1.000000
                       1.000000  1.000000  1.000000  1.000000  1.000000  1.000000
                       1.000000  1.000000  1.000000  1.000000  1.000000  1.000000
                       1.000000  1.000000  1.000000  1.000000  1.000000  1.000000
                       1.000000  1.000000  1.000000  1.000000  1.000000  1.000000
                       1.000000  1.000000  1.000000  1.000000  1.000000  1.000000
                       1.000000  1.000000  1.000000  1.000000  1.000000  1.000000
                       1.000000  1.000000  1.000000  1.000000  1.000000  1.000000
                       1.000000  1.000000  1.000000  1.000000  1.000000  1.000000
                       1.000000  1.000000  1.000000  1.000000  1.000000  1.000000
                       1.000000  1.000000  1.000000  1.000000  1.000000  1.000000
                       1.000000  1.000000  1.000000  1.000000  1.000000  1.000000
                       1.000000  1.000000  1.000000  1.000000  1.000000  1.000000
                       1.000000  1.000000  0.000000  0.000000  0.000000  0.000000
                       0.000000  0.000000  0.000000  0.000000  0.000000  0.000000
                       0.000000  0.000000  0.000000  0.000000  0.000000  0.000000
                       0.000000  0.000000  0.000000  0.000000  0.000000  0.000000
                       0.000000  0.000000  0.000000  0.000000  0.000000  0.000000
                       1.000000  1.000000  1.000000  1.000000  1.000000  1.000000
                       1.000000  1.000000  1.000000  1.000000  1.000000  1.000000
                       1.000000  1.000000  1.000000  1.000000  1.000000  1.000000
                       1.000000  1.000000  1.000000  1.000000  1.000000  1.000000
                       1.000000  1.000000  1.000000  1.000000  1.000000  1.000000
                       1.000000  1.000000  1.000000  1.000000  1.000000  1.000000
                       1.000000  1.000000  1.000000  1.000000  1.000000  1.000000
                       1.000000  1.000000  1.000000  1.000000  1.000000  1.000000
                       1.000000  1.000000  1.000000  1.000000  1.000000  1.000000
                       1.000000  1.000000  1.000000  1.000000  1.000000  1.000000
                       1.000000  1.000000  1.000000  1.000000  1.000000  1.000000
                       1.000000  1.000000  1.000000  1.000000  1.000000  1.000000
                       1.000000  1.000000  1.000000  1.000000  1.000000  1.000000
                       1.000000  1.000000  1.000000  1.000000  1.000000  1.000000
                       1.000000  1.000000  1.000000  1.000000  1.000000  1.000000
                       1.000000  1.000000  1.000000  1.000000  1.000000  1.000000
                       1.000000  1.000000  1.000000  1.000000  1.000000  1.000000
                       1.000000  1.000000  1.000000  1.000000  1.000000  1.000000
                       1.000000  1.000000  1.000000  1.000000  1.000000  1.000000
                       1.000000  1.000000  1.000000  1.000000  1.000000  1.000000
                       1.000000  1.000000  1.000000  1.000000  1.000000  1.000000
                       1.000000  1.000000  1.000000  1.000000  1.000000  1.000000
                       1.000000  1.000000  1.000000  1.000000  1.000000  1.000000
                       1.000000  1.000000  1.000000  1.000000  1.000000  1.000000
                       1.000000  1.000000  1.000000  1.000000  1.000000  1.000000
                       1.000000  1.000000  1.000000  1.000000  1.000000  1.000000
                       1.000000  1.000000  1.000000  1.000000  1.000000  1.000000
                       1.000000  1.000000  1.000000  1.000000  1.000000  1.000000
                       1.000000  1.000000  1.000000  1.000000  1.000000  1.000000
                       1.000000  1.000000  0.000000  0.000000  0.000000  0.000000
                       0.000000  0.000000  0.000000  0.000000  0.000000  0.000000
                       0.000000  0.000000  0.000000  0.000000  0.000000  0.000000
                       0.000000  0.000000  0.000000  0.000000  0.000000  0.000000
                       0.000000  0.000000  0.000000  0.000000  0.000000  0.000000
           occopt           2
        paral_kgb           1
        pawecutdg      3.00000000E+01 Hartree
         pawmixdg           1
            prtwf          -1
            rprim      1.5139044928E+01  3.8157104200E-02  0.0000000000E+00
                       3.8157104200E-02  1.5138926862E+01  0.0000000000E+00
                       0.0000000000E+00  0.0000000000E+00  2.4286034968E+01
           shiftk      5.00000000E-01  5.00000000E-01  5.00000000E-01
          spgroup          10
           spinat      0.0000000000E+00  0.0000000000E+00  7.0000000000E+00
                       0.0000000000E+00  0.0000000000E+00  0.0000000000E+00
                       0.0000000000E+00  0.0000000000E+00  0.0000000000E+00
                       0.0000000000E+00  0.0000000000E+00  0.0000000000E+00
                       0.0000000000E+00  0.0000000000E+00  0.0000000000E+00
                       0.0000000000E+00  0.0000000000E+00  0.0000000000E+00
                       0.0000000000E+00  0.0000000000E+00  0.0000000000E+00
                       0.0000000000E+00  0.0000000000E+00  0.0000000000E+00
                       0.0000000000E+00  0.0000000000E+00  0.0000000000E+00
                       0.0000000000E+00  0.0000000000E+00  0.0000000000E+00
                       0.0000000000E+00  0.0000000000E+00  0.0000000000E+00
                       0.0000000000E+00  0.0000000000E+00  0.0000000000E+00
                       0.0000000000E+00  0.0000000000E+00  0.0000000000E+00
                       0.0000000000E+00  0.0000000000E+00  0.0000000000E+00
                       0.0000000000E+00  0.0000000000E+00  0.0000000000E+00
                       0.0000000000E+00  0.0000000000E+00  0.0000000000E+00
                       0.0000000000E+00  0.0000000000E+00  0.0000000000E+00
                       0.0000000000E+00  0.0000000000E+00  0.0000000000E+00
                       0.0000000000E+00  0.0000000000E+00  0.0000000000E+00
                       0.0000000000E+00  0.0000000000E+00  0.0000000000E+00
                       0.0000000000E+00  0.0000000000E+00  0.0000000000E+00
                       0.0000000000E+00  0.0000000000E+00  0.0000000000E+00
                       0.0000000000E+00  0.0000000000E+00  0.0000000000E+00
                       0.0000000000E+00  0.0000000000E+00  0.0000000000E+00
                       0.0000000000E+00  0.0000000000E+00  0.0000000000E+00
                       0.0000000000E+00  0.0000000000E+00  0.0000000000E+00
                       0.0000000000E+00  0.0000000000E+00  0.0000000000E+00
                       0.0000000000E+00  0.0000000000E+00  0.0000000000E+00
                       0.0000000000E+00  0.0000000000E+00  0.0000000000E+00
                       0.0000000000E+00  0.0000000000E+00  0.0000000000E+00
                       0.0000000000E+00  0.0000000000E+00  0.0000000000E+00
                       0.0000000000E+00  0.0000000000E+00  0.0000000000E+00
                       0.0000000000E+00  0.0000000000E+00  0.0000000000E+00
                       0.0000000000E+00  0.0000000000E+00  0.0000000000E+00
                       0.0000000000E+00  0.0000000000E+00  0.0000000000E+00
                       0.0000000000E+00  0.0000000000E+00  0.0000000000E+00
                       0.0000000000E+00  0.0000000000E+00  0.0000000000E+00
                       0.0000000000E+00  0.0000000000E+00  0.0000000000E+00
                       0.0000000000E+00  0.0000000000E+00  0.0000000000E+00
                       0.0000000000E+00  0.0000000000E+00  0.0000000000E+00
                       0.0000000000E+00  0.0000000000E+00  0.0000000000E+00
                       0.0000000000E+00  0.0000000000E+00  0.0000000000E+00
                       0.0000000000E+00  0.0000000000E+00  0.0000000000E+00
                       0.0000000000E+00  0.0000000000E+00  0.0000000000E+00
                       0.0000000000E+00  0.0000000000E+00  0.0000000000E+00
                       0.0000000000E+00  0.0000000000E+00  0.0000000000E+00
                       0.0000000000E+00  0.0000000000E+00  0.0000000000E+00
                       0.0000000000E+00  0.0000000000E+00  0.0000000000E+00
                       0.0000000000E+00  0.0000000000E+00  0.0000000000E+00
                       0.0000000000E+00  0.0000000000E+00  0.0000000000E+00
                       0.0000000000E+00  0.0000000000E+00  0.0000000000E+00
                       0.0000000000E+00  0.0000000000E+00  0.0000000000E+00
                       0.0000000000E+00  0.0000000000E+00  0.0000000000E+00
                       0.0000000000E+00  0.0000000000E+00  0.0000000000E+00
                       0.0000000000E+00  0.0000000000E+00  0.0000000000E+00
                       0.0000000000E+00  0.0000000000E+00  0.0000000000E+00
                       0.0000000000E+00  0.0000000000E+00  0.0000000000E+00
                       0.0000000000E+00  0.0000000000E+00  0.0000000000E+00
                       0.0000000000E+00  0.0000000000E+00  0.0000000000E+00
                       0.0000000000E+00  0.0000000000E+00  0.0000000000E+00
                       0.0000000000E+00  0.0000000000E+00  0.0000000000E+00
                       0.0000000000E+00  0.0000000000E+00  0.0000000000E+00
                       0.0000000000E+00  0.0000000000E+00  0.0000000000E+00
                       0.0000000000E+00  0.0000000000E+00  0.0000000000E+00
                       0.0000000000E+00  0.0000000000E+00  0.0000000000E+00
                       0.0000000000E+00  0.0000000000E+00  0.0000000000E+00
                       0.0000000000E+00  0.0000000000E+00  0.0000000000E+00
                       0.0000000000E+00  0.0000000000E+00  0.0000000000E+00
                       0.0000000000E+00  0.0000000000E+00  0.0000000000E+00
                       0.0000000000E+00  0.0000000000E+00  0.0000000000E+00
                       0.0000000000E+00  0.0000000000E+00  0.0000000000E+00
                       0.0000000000E+00  0.0000000000E+00  0.0000000000E+00
           symrel      1  0  0   0  1  0   0  0  1      -1  0  0   0 -1  0   0  0 -1
                      -1  0  0   0 -1  0   0  0  1       1  0  0   0  1  0   0  0 -1
            tnons      0.0000000  0.0000000  0.0000000    -0.0000000 -0.0000000  0.2500000
                      -0.0000000 -0.0000000  0.0000000     0.0000000  0.0000000  0.2500000
           toldfe      1.00000000E-08 Hartree
            typat      1  2  2  2  2  2  2  2  3  3  3  3  3  3  3  3  3  3  3  3
                       3  3  3  3  4  4  4  4  4  4  4  4  4  4  4  4  4  4  4  4
                       5  5  5  5  5  5  5  5  5  5  5  5  5  5  5  5  6  6  6  6
                       6  6  6  6  6  6  6  6  6  6  6  6
            upawu      2.57245278E-01  0.00000000E+00  0.00000000E+00  0.00000000E+00  0.00000000E+00  0.00000000E+00 Hartree
          usepawu           1
           useylm           1
         wfoptalg         114
              wtk        0.50000    0.50000
           xangst      4.0056187680E+00  1.0095934944E-02  1.6064520240E+00
                       4.0056187680E+00  1.0095934944E-02  4.8210276175E+00
                       4.0056187680E+00  1.0095934944E-02  8.0322601200E+00
                       4.0056187680E+00  1.0095934944E-02  1.1243492623E+01
                       1.0095934944E-02  4.0055875290E+00 -2.0215470794E-04
                       1.0095934944E-02  4.0055875290E+00  3.2131062027E+00
                       1.0095934944E-02  4.0055875290E+00  6.4261967919E+00
                       1.0095934944E-02  4.0055875290E+00  9.6383234482E+00
                       1.0217247860E+00  6.5943499652E+00  1.6064520240E+00
                       1.0225694129E+00  6.5936654374E+00  4.8223198796E+00
                       1.0249806176E+00  6.5950367007E+00  8.0322601200E+00
                       1.0225694129E+00  6.5936654374E+00  1.1242200360E+01
                       7.0097046198E+00  1.4370169627E+00  1.6064520240E+00
                       7.0088599929E+00  1.4377014906E+00  4.8223198796E+00
                       7.0064487882E+00  1.4363302272E+00  8.0322601200E+00
                       7.0088599929E+00  1.4377014906E+00  1.1242200360E+01
                       1.4194855438E+00  1.0154564806E+00 -4.1803196117E-04
                       1.4194855438E+00  1.0154564806E+00  3.2133220800E+00
                       1.4218351583E+00  1.0161913324E+00  6.4262603405E+00
                       1.4218351583E+00  1.0161913324E+00  9.6382598995E+00
                       6.6119438620E+00  7.0159104474E+00 -4.1803196117E-04
                       6.6119438620E+00  7.0159104474E+00  3.2133220800E+00
                       6.6095942475E+00  7.0151755955E+00  6.4262603405E+00
                       6.6095942475E+00  7.0151755955E+00  9.6382598995E+00
                       2.8404285276E+00  5.4899011717E+00 -2.8390236708E-05
                       2.8404285276E+00  5.4899011717E+00  3.2129324382E+00
                       2.8424842443E+00  5.4902389612E+00  6.4261158794E+00
                       2.8424842443E+00  5.4902389612E+00  9.6384043607E+00
                       5.1910008782E+00  2.5414657563E+00 -2.8390236708E-05
                       5.1910008782E+00  2.5414657563E+00  3.2129324382E+00
                       5.1889451615E+00  2.5411279667E+00  6.4261158794E+00
                       5.1889451615E+00  2.5411279667E+00  9.6384043607E+00
                       2.5394981982E+00  2.8362834068E+00  1.6064520240E+00
                       2.5384831051E+00  2.8384633397E+00  4.8211772694E+00
                       2.5383432678E+00  2.8379800470E+00  8.0322601200E+00
                       2.5384831051E+00  2.8384633397E+00  1.1243342971E+01
                       5.4919312077E+00  5.1950835211E+00  1.6064520240E+00
                       5.4929463008E+00  5.1929035882E+00  4.8211772694E+00
                       5.4930861380E+00  5.1933868809E+00  8.0322601200E+00
                       5.4929463008E+00  5.1929035882E+00  1.1243342971E+01
                       4.6978004701E+00  5.8583626769E+00 -1.9141503410E-03
                       4.6978004701E+00  5.8583626769E+00  3.2148181983E+00
                       4.6990215655E+00  5.8605170226E+00  6.4265129545E+00
                       4.6990215655E+00  5.8605170226E+00  9.6380072856E+00
                       3.3336289358E+00  2.1730042511E+00 -1.9141503410E-03
                       3.3336289358E+00  2.1730042511E+00  3.2148181983E+00
                       3.3324078403E+00  2.1708499053E+00  6.4265129545E+00
                       3.3324078403E+00  2.1708499053E+00  9.6380072856E+00
                       2.1752377891E+00  4.6934176008E+00  1.6064520240E+00
                       2.1755122445E+00  4.6947262127E+00  4.8203563159E+00
                       2.1756741970E+00  4.6946858403E+00  8.0322601200E+00
                       2.1755122445E+00  4.6947262127E+00  1.1244163924E+01
                       5.8561916167E+00  3.3379493271E+00  1.6064520240E+00
                       5.8559171614E+00  3.3366407152E+00  4.8203563159E+00
                       5.8557552088E+00  3.3366810876E+00  8.0322601200E+00
                       5.8559171614E+00  3.3366407152E+00  1.1244163924E+01
                       2.0565788173E+00  7.1572216329E+00 -4.0667076381E-03
                       2.0565788173E+00  7.1572216329E+00  3.2169707556E+00
                       2.0666318964E+00  7.1605407112E+00  6.4265354062E+00
                       2.0666318964E+00  7.1605407112E+00  9.6379848338E+00
                       5.9748505885E+00  8.7414529499E-01 -4.0667076381E-03
                       5.9748505885E+00  8.7414529499E-01  3.2169707556E+00
                       5.9647975095E+00  8.7082621672E-01  6.4265354062E+00
                       5.9647975095E+00  8.7082621672E-01  9.6379848338E+00
                       8.6824821949E-01  2.0600565396E+00  1.6064520240E+00
                       8.6799065423E-01  2.0605749456E+00  4.8202262909E+00
                       8.6722666715E-01  2.0601317617E+00  8.0322601200E+00
                       8.6799065423E-01  2.0605749456E+00  1.1244293949E+01
                       7.1631811863E+00  5.9713103883E+00  1.6064520240E+00
                       7.1634387516E+00  5.9707919823E+00  4.8202262909E+00
                       7.1642027387E+00  5.9712351662E+00  8.0322601200E+00
                       7.1634387516E+00  5.9707919823E+00  1.1244293949E+01
            xcart      7.5695224642E+00  1.9078552100E-02  3.0357543710E+00
                       7.5695224642E+00  1.9078552100E-02  9.1104218761E+00
                       7.5695224642E+00  1.9078552100E-02  1.5178771855E+01
                       7.5695224642E+00  1.9078552100E-02  2.1247121834E+01
                       1.9078552100E-02  7.5694634311E+00 -3.8201703448E-04
                       1.9078552100E-02  7.5694634311E+00  6.0718907590E+00
                       1.9078552100E-02  7.5694634311E+00  1.2143752013E+01
                       1.9078552100E-02  7.5694634311E+00  1.8213791697E+01
                       1.9307800287E+00  1.2461515459E+01  3.0357543710E+00
                       1.9323761422E+00  1.2460221888E+01  9.1128638976E+00
                       1.9369326589E+00  1.2462813201E+01  1.5178771855E+01
                       1.9323761422E+00  1.2460221888E+01  2.1244679812E+01
                       1.3246422004E+01  2.7155685078E+00  3.0357543710E+00
                       1.3244825890E+01  2.7168620780E+00  9.1128638976E+00
                       1.3240269374E+01  2.7142707658E+00  1.5178771855E+01
                       1.3244825890E+01  2.7168620780E+00  2.1244679812E+01
                       2.6824389274E+00  1.9189346481E+00 -7.8996592140E-04
                       2.6824389274E+00  1.9189346481E+00  6.0722987079E+00
                       2.6868790553E+00  1.9203233169E+00  1.2143872102E+01
                       2.6868790553E+00  1.9203233169E+00  1.8213671608E+01
                       1.2494763105E+01  1.3258149318E+01 -7.8996592140E-04
                       1.2494763105E+01  1.3258149318E+01  6.0722987079E+00
                       1.2490322977E+01  1.3256760650E+01  1.2143872102E+01
                       1.2490322977E+01  1.3256760650E+01  1.8213671608E+01
                       5.3676320171E+00  1.0374409711E+01 -5.3649772227E-05
                       5.3676320171E+00  1.0374409711E+01  6.0715623917E+00
                       5.3715167588E+00  1.0375048041E+01  1.2143599110E+01
                       5.3715167588E+00  1.0375048041E+01  1.8213944600E+01
                       9.8095700155E+00  4.8026742554E+00 -5.3649772227E-05
                       9.8095700155E+00  4.8026742554E+00  6.0715623917E+00
                       9.8056852738E+00  4.8020359256E+00  1.2143599110E+01
                       9.8056852738E+00  4.8020359256E+00  1.8213944600E+01
                       4.7989561095E+00  5.3597988741E+00  3.0357543710E+00
                       4.7970378615E+00  5.3639183503E+00  9.1107046773E+00
                       4.7967736074E+00  5.3630050595E+00  1.5178771855E+01
                       4.7970378615E+00  5.3639183503E+00  2.1246839033E+01
                       1.0378245923E+01  9.8172850924E+00  3.0357543710E+00
                       1.0380164171E+01  9.8131656162E+00  9.1107046773E+00
                       1.0380428425E+01  9.8140789070E+00  1.5178771855E+01
                       1.0380164171E+01  9.8131656162E+00  2.1246839033E+01
                       8.8775563153E+00  1.1070701046E+01 -3.6172199217E-03
                       8.8775563153E+00  1.1070701046E+01  6.0751259619E+00
                       8.8798638514E+00  1.1074772170E+01  1.2144349473E+01
                       8.8798638514E+00  1.1074772170E+01  1.8213194236E+01
                       6.2996457173E+00  4.1063829201E+00 -3.6172199217E-03
                       6.2996457173E+00  4.1063829201E+00  6.0751259619E+00
                       6.2973381812E+00  4.1023117967E+00  1.2144349473E+01
                       6.2973381812E+00  4.1023117967E+00  1.8213194236E+01
                       4.1106036953E+00  8.8692738928E+00  3.0357543710E+00
                       4.1111223408E+00  8.8717468110E+00  9.1091532999E+00
                       4.1114283867E+00  8.8716705181E+00  1.5178771855E+01
                       4.1111223408E+00  8.8717468110E+00  2.1248390410E+01
                       1.1066598337E+01  6.3078100737E+00  3.0357543710E+00
                       1.1066079692E+01  6.3053371555E+00  9.1091532999E+00
                       1.1065773646E+01  6.3054134484E+00  1.5178771855E+01
                       1.1066079692E+01  6.3053371555E+00  2.1248390410E+01
                       3.8863707354E+00  1.3525188759E+01 -7.6849636985E-03
                       3.8863707354E+00  1.3525188759E+01  6.0791937057E+00
                       3.9053683016E+00  1.3531460908E+01  1.2144391901E+01
                       3.9053683016E+00  1.3531460908E+01  1.8213151809E+01
                       1.1290831297E+01  1.6518952079E+00 -7.6849636985E-03
                       1.1290831297E+01  1.6518952079E+00  6.0791937057E+00
                       1.1271833731E+01  1.6456230589E+00  1.2144391901E+01
                       1.1271833731E+01  1.6456230589E+00  1.8213151809E+01
                       1.6407513502E+00  3.8929426781E+00  3.0357543710E+00
                       1.6402646224E+00  3.8939223235E+00  9.1089075884E+00
                       1.6388208961E+00  3.8930848272E+00  1.5178771855E+01
                       1.6402646224E+00  3.8939223235E+00  2.1248636121E+01
                       1.3536450682E+01  1.1284141288E+01  3.0357543710E+00
                       1.3536937410E+01  1.1283161643E+01  9.1089075884E+00
                       1.3538381137E+01  1.1283999139E+01  1.5178771855E+01
                       1.3536937410E+01  1.1283161643E+01  2.1248636121E+01
             xred      5.0000000000E-01 -2.1684043450E-19  1.2500000000E-01
                       5.0000000000E-01 -2.1684043450E-19  3.7513006500E-01
                       5.0000000000E-01 -2.1684043450E-19  6.2500000000E-01
                       5.0000000000E-01 -2.1684043450E-19  8.7486993500E-01
                      -5.5511151231E-17  5.0000000000E-01 -1.5729905478E-05
                      -5.5511151231E-17  5.0000000000E-01  2.5001572991E-01
                      -5.5511151231E-17  5.0000000000E-01  5.0003024490E-01
                      -5.5511151231E-17  5.0000000000E-01  7.4996975510E-01
                       1.2546255830E-01  8.2282768680E-01  1.2500000000E-01
                       1.2556820460E-01  8.2274197390E-01  3.7523061750E-01
                       1.2586875290E-01  8.2291238520E-01  6.2500000000E-01
                       1.2556820460E-01  8.2274197390E-01  8.7476938250E-01
                       8.7453744170E-01  1.7717231320E-01  1.2500000000E-01
                       8.7443179540E-01  1.7725802610E-01  3.7523061750E-01
                       8.7413124710E-01  1.7708761480E-01  6.2500000000E-01
                       8.7443179540E-01  1.7725802610E-01  8.7476938250E-01
                       1.7686844490E-01  1.2630920790E-01 -3.2527579016E-05
                       1.7686844490E-01  1.2630920790E-01  2.5003252758E-01
                       1.7716150540E-01  1.2640019760E-01  5.0003518970E-01
                       1.7716150540E-01  1.2640019760E-01  7.4996481030E-01
                       8.2313155510E-01  8.7369079210E-01 -3.2527579016E-05
                       8.2313155510E-01  8.7369079210E-01  2.5003252758E-01
                       8.2283849460E-01  8.7359980240E-01  5.0003518970E-01
                       8.2283849460E-01  8.7359980240E-01  7.4996481030E-01
                       3.5283055570E-01  6.8439109410E-01 -2.2090790982E-06
                       3.5283055570E-01  6.8439109410E-01  2.5000220908E-01
                       3.5308705520E-01  6.8443261240E-01  5.0002394900E-01
                       3.5308705520E-01  6.8443261240E-01  7.4997605100E-01
                       6.4716944430E-01  3.1560890590E-01 -2.2090790982E-06
                       6.4716944430E-01  3.1560890590E-01  2.5000220908E-01
                       6.4691294480E-01  3.1556738760E-01  5.0002394900E-01
                       6.4691294480E-01  3.1556738760E-01  7.4997605100E-01
                       3.1610166680E-01  3.5324414990E-01  1.2500000000E-01
                       3.1597427150E-01  3.5351658250E-01  3.7514170960E-01
                       3.1595696830E-01  3.5345629880E-01  6.2500000000E-01
                       3.1597427150E-01  3.5351658250E-01  8.7485829040E-01
                       6.8389833320E-01  6.4675585010E-01  1.2500000000E-01
                       6.8402572850E-01  6.4648341750E-01  3.7514170960E-01
                       6.8404303170E-01  6.4654370120E-01  6.2500000000E-01
                       6.8402572850E-01  6.4648341750E-01  8.7485829040E-01
                       5.8456192480E-01  7.2980046450E-01 -1.4894238300E-04
                       5.8456192480E-01  7.2980046450E-01  2.5014894238E-01
                       5.8471367080E-01  7.3006899960E-01  5.0005484590E-01
                       5.8471367080E-01  7.3006899960E-01  7.4994515410E-01
                       4.1543807520E-01  2.7019953550E-01 -1.4894238300E-04
                       4.1543807520E-01  2.7019953550E-01  2.5014894238E-01
                       4.1528632920E-01  2.6993100040E-01  5.0005484590E-01
                       4.1528632920E-01  2.6993100040E-01  7.4994515410E-01
                       2.7004840860E-01  5.8517817730E-01  1.2500000000E-01
                       2.7008225590E-01  5.8534144030E-01  3.7507783020E-01
                       2.7010248440E-01  5.8533634980E-01  6.2500000000E-01
                       2.7008225590E-01  5.8534144030E-01  8.7492216980E-01
                       7.2995159140E-01  4.1482182270E-01  1.2500000000E-01
                       7.2991774410E-01  4.1465855970E-01  3.7507783020E-01
                       7.2989751560E-01  4.1466365020E-01  6.2500000000E-01
                       7.2991774410E-01  4.1465855970E-01  8.7492216980E-01
                       2.5446159180E-01  8.9276336190E-01 -3.1643550331E-04
                       2.5446159180E-01  8.9276336190E-01  2.5031643550E-01
                       2.5571542770E-01  8.9317450770E-01  5.0005659290E-01
                       2.5571542770E-01  8.9317450770E-01  7.4994340710E-01
                       7.4553840820E-01  1.0723663810E-01 -3.1643550331E-04
                       7.4553840820E-01  1.0723663810E-01  2.5031643550E-01
                       7.4428457230E-01  1.0682549230E-01  5.0005659290E-01
                       7.4428457230E-01  1.0682549230E-01  7.4994340710E-01
                       1.0773134640E-01  2.5687632930E-01  1.2500000000E-01
                       1.0769903260E-01  2.5694112110E-01  3.7506771280E-01
                       1.0760380700E-01  2.5688604040E-01  6.2500000000E-01
                       1.0769903260E-01  2.5694112110E-01  8.7493228720E-01
                       8.9226865360E-01  7.4312367070E-01  1.2500000000E-01
                       8.9230096740E-01  7.4305887890E-01  3.7506771280E-01
                       8.9239619300E-01  7.4311395960E-01  6.2500000000E-01
                       8.9230096740E-01  7.4305887890E-01  8.7493228720E-01
            znucl       63.00000   38.00000    3.00000   13.00000    7.00000    8.00000
 
================================================================================
 
 chkinp: Checking input parameters for consistency.
 DATA TYPE INFORMATION: 
 REAL:      Data type name: REAL(DP) 
            Kind value:      8
            Precision:      15
            Smallest nonnegligible quantity relative to 1: 0.22204460E-015
            Smallest positive number:                      0.22250739E-307
            Largest representable number:                  0.17976931E+309
 INTEGER:   Data type name: INTEGER(default) 
            Kind value: 4
            Bit size:   32
            Largest representable number: 2147483647
 LOGICAL:   Data type name: LOGICAL 
            Kind value: 4
 CHARACTER: Data type name: CHARACTER             Kind value: 1

  ==== OpenMP parallelism is OFF ====
 
  ==== Using MPI-2 specifications ==== 
  MPI-IO support is ON
  xmpi_tag_ub ................       524287
  xmpi_bsize_ch ..............            1
  xmpi_bsize_int .............            4
  xmpi_bsize_sp ..............            4
  xmpi_bsize_dp ..............            8
  xmpi_bsize_spc .............            8
  xmpi_bsize_dpc .............           16
  xmpio_bsize_frm ............            4
  xmpi_address_kind ..........            8
  xmpi_offset_kind ...........            8
  MPI_WTICK ..................   3.448228407230070E-010
 
================================================================================
== DATASET  1 ==================================================================
-   mpi_nproc: 40, omp_nthreads: -1 (-1 if OMP is not activated)
 
 
--- !COMMENT
src_file: m_xgScalapack.F90
src_line: 236
message: |
    xgScalapack in auto mode
...
 
 
 getdim_nloc : deduce lmnmax  =  32, lnmax  =   8,
                      lmnmaxso=  32, lnmaxso=   8.
 Perdew, Burke & Ernzerhof
 J. P. Perdew, K. Burke, and M. Ernzerhof, Phys. Rev. Lett. 77, 3865 (1996)
 J. P. Perdew, K. Burke, and M. Ernzerhof, Phys. Rev. Lett. 78, 1396 (1997)
 Perdew, Burke & Ernzerhof
 J. P. Perdew, K. Burke, and M. Ernzerhof, Phys. Rev. Lett. 77, 3865 (1996)
 J. P. Perdew, K. Burke, and M. Ernzerhof, Phys. Rev. Lett. 78, 1396 (1997)
 
 Unit cell volume ucvol=  5.5660541E+03 bohr^3
 Angles (23,13,12)=  9.00000000E+01  9.00000000E+01  8.97111780E+01 degrees
 
 Coarse grid specifications (used for wave-functions):
 
 getcut: wavevector=  0.0000  0.0000  0.0000  ngfft=  54  60  90
         ecut(hartree)=     15.000   => boxcut(ratio)=   2.04592
 
 Fine grid specifications (used for densities):
 
 getcut: wavevector=  0.0000  0.0000  0.0000  ngfft=  80  80 120
         ecut(hartree)=     30.000   => boxcut(ratio)=   2.00401
 Relative gap for number of plane waves between process (%):  9.85
- pspini: atom type   1  psp file is /home/ucl/modl/jbouq/psps_paw_pbe/Eu.GGA_PBE-JTH.xml
- pspatm: opening atomic psp file    /home/ucl/modl/jbouq/psps_paw_pbe/Eu.GGA_PBE-JTH.xml
- pspatm : Reading pseudopotential header in XML form from /home/ucl/modl/jbouq/psps_paw_pbe/Eu.GGA_PBE-JTH.xml
 Pseudopotential format is: paw10
 basis_size (lnmax)=  8 (lmn_size= 32), orbitals=   0   0   1   1   2   2   3   3
 Spheres core radius: rc_sph= 2.52170005
 1 radial meshes are used:
  - mesh 1: r(i)=AA*[exp(BB*(i-1))-1], size=1500 , AA= 0.14034E-03 BB= 0.88415E-02
 Shapefunction is SIN type: shapef(r)=[sin(pi*r/rshp)/(pi*r/rshp)]**2
 Radius for shape functions =  2.30830346
 mmax= 1500
 Radial grid used for partial waves is grid 1
 Radial grid used for projectors is grid 1
 Radial grid used for (t)core density is grid 1
 Radial grid used for Vloc is grid 1
 Radial grid used for pseudo valence density is grid 1
 Mesh size for Vloc has been set to 1343 to avoid numerical noise.
 Compensation charge density is not taken into account in XC energy/potential
 beta integral value:      -0.100338E+03
 pspatm: atomic psp has been read  and splines computed
 
- pspini: atom type   2  psp file is /home/ucl/modl/jbouq/psps_paw_pbe/Sr.GGA_PBE-JTH.xml
- pspatm: opening atomic psp file    /home/ucl/modl/jbouq/psps_paw_pbe/Sr.GGA_PBE-JTH.xml
- pspatm : Reading pseudopotential header in XML form from /home/ucl/modl/jbouq/psps_paw_pbe/Sr.GGA_PBE-JTH.xml
 Pseudopotential format is: paw10
 basis_size (lnmax)=  6 (lmn_size= 18), orbitals=   0   0   1   1   2   2
 Spheres core radius: rc_sph= 2.20669967
 1 radial meshes are used:
  - mesh 1: r(i)=AA*[exp(BB*(i-1))-1], size=1500 , AA= 0.22443E-03 BB= 0.85283E-02
 Shapefunction is SIN type: shapef(r)=[sin(pi*r/rshp)/(pi*r/rshp)]**2
 Radius for shape functions =  1.81361893
 mmax= 1500
 Radial grid used for partial waves is grid 1
 Radial grid used for projectors is grid 1
 Radial grid used for (t)core density is grid 1
 Radial grid used for Vloc is grid 1
 Radial grid used for pseudo valence density is grid 1
 Mesh size for Vloc has been set to 1337 to avoid numerical noise.
 Compensation charge density is not taken into account in XC energy/potential
 beta integral value:      -0.348164E+02
 pspatm: atomic psp has been read  and splines computed
 
- pspini: atom type   3  psp file is /home/ucl/modl/jbouq/psps_paw_pbe/Li.GGA_PBE-JTH.xml
- pspatm: opening atomic psp file    /home/ucl/modl/jbouq/psps_paw_pbe/Li.GGA_PBE-JTH.xml
- pspatm : Reading pseudopotential header in XML form from /home/ucl/modl/jbouq/psps_paw_pbe/Li.GGA_PBE-JTH.xml
 Pseudopotential format is: paw10
 basis_size (lnmax)=  5 (lmn_size=  9), orbitals=   0   0   0   1   1
 Spheres core radius: rc_sph= 1.60264751
 1 radial meshes are used:
  - mesh 1: r(i)=AA*[exp(BB*(i-1))-1], size=2001 , AA= 0.17851E-02 BB= 0.53552E-02
 Shapefunction is BESSEL type: shapef(r,l)=aa(1,l)*jl(q(1,l)*r)+aa(2,l)*jl(q(2,l)*r)
 Radius for shape functions =  1.30023672
 mmax= 2001
 Radial grid used for partial waves is grid 1
 Radial grid used for projectors is grid 1
 Radial grid used for (t)core density is grid 1
 Radial grid used for Vloc is grid 1
 Radial grid used for pseudo valence density is grid 1
 Mesh size for Vloc has been set to 1742 to avoid numerical noise.
 Compensation charge density is not taken into account in XC energy/potential
 beta integral value:      -0.572314E+01
 pspatm: atomic psp has been read  and splines computed
 
- pspini: atom type   4  psp file is /home/ucl/modl/jbouq/psps_paw_pbe/Al.GGA_PBE-JTH.xml
- pspatm: opening atomic psp file    /home/ucl/modl/jbouq/psps_paw_pbe/Al.GGA_PBE-JTH.xml
- pspatm : Reading pseudopotential header in XML form from /home/ucl/modl/jbouq/psps_paw_pbe/Al.GGA_PBE-JTH.xml
 Pseudopotential format is: paw10
 basis_size (lnmax)=  4 (lmn_size=  8), orbitals=   0   0   1   1
 Spheres core radius: rc_sph= 1.90363307
 1 radial meshes are used:
  - mesh 1: r(i)=AA*[exp(BB*(i-1))-1], size=2001 , AA= 0.46377E-03 BB= 0.60291E-02
 Shapefunction is SIN type: shapef(r)=[sin(pi*r/rshp)/(pi*r/rshp)]**2
 Radius for shape functions =  1.60786206
 mmax= 2001
 Radial grid used for partial waves is grid 1
 Radial grid used for projectors is grid 1
 Radial grid used for (t)core density is grid 1
 Radial grid used for Vloc is grid 1
 Radial grid used for pseudo valence density is grid 1
 Mesh size for Vloc has been set to 1771 to avoid numerical noise.
 Compensation charge density is not taken into account in XC energy/potential
 beta integral value:      -0.421879E+01
 pspatm: atomic psp has been read  and splines computed
 
- pspini: atom type   5  psp file is /home/ucl/modl/jbouq/psps_paw_pbe/N.GGA_PBE-JTH.xml
- pspatm: opening atomic psp file    /home/ucl/modl/jbouq/psps_paw_pbe/N.GGA_PBE-JTH.xml
- pspatm : Reading pseudopotential header in XML form from /home/ucl/modl/jbouq/psps_paw_pbe/N.GGA_PBE-JTH.xml
 Pseudopotential format is: paw10
 basis_size (lnmax)=  4 (lmn_size=  8), orbitals=   0   0   1   1
 Spheres core radius: rc_sph= 1.20000000
 1 radial meshes are used:
  - mesh 1: r(i)=AA*[exp(BB*(i-1))-1], size= 787 , AA= 0.19344E-02 BB= 0.13541E-01
 Shapefunction is SIN type: shapef(r)=[sin(pi*r/rshp)/(pi*r/rshp)]**2
 Radius for shape functions =  1.00599851
 mmax=  787
 Radial grid used for partial waves is grid 1
 Radial grid used for projectors is grid 1
 Radial grid used for (t)core density is grid 1
 Radial grid used for Vloc is grid 1
 Radial grid used for pseudo valence density is grid 1
 Mesh size for Vloc has been set to  683 to avoid numerical noise.
 Compensation charge density is not taken into account in XC energy/potential
 beta integral value:      -0.338496E+01
 pspatm: atomic psp has been read  and splines computed
 
- pspini: atom type   6  psp file is /home/ucl/modl/jbouq/psps_paw_pbe/O.GGA_PBE-JTH.xml
- pspatm: opening atomic psp file    /home/ucl/modl/jbouq/psps_paw_pbe/O.GGA_PBE-JTH.xml
- pspatm : Reading pseudopotential header in XML form from /home/ucl/modl/jbouq/psps_paw_pbe/O.GGA_PBE-JTH.xml
 Pseudopotential format is: paw10
 basis_size (lnmax)=  4 (lmn_size=  8), orbitals=   0   0   1   1
 Spheres core radius: rc_sph= 1.41465230
 1 radial meshes are used:
  - mesh 1: r(i)=AA*[exp(BB*(i-1))-1], size=2001 , AA= 0.72565E-03 BB= 0.58052E-02
 Shapefunction is SIN type: shapef(r)=[sin(pi*r/rshp)/(pi*r/rshp)]**2
 Radius for shape functions =  1.20231231
 mmax= 2001
 Radial grid used for partial waves is grid 1
 Radial grid used for projectors is grid 1
 Radial grid used for (t)core density is grid 1
 Radial grid used for Vloc is grid 1
 Radial grid used for pseudo valence density is grid 1
 Mesh size for Vloc has been set to 1762 to avoid numerical noise.
 Compensation charge density is not taken into account in XC energy/potential
 beta integral value:      -0.481698E+01
 pspatm: atomic psp has been read  and splines computed
 
   1.43215553E+05                                ecore*ucvol(ha*bohr**3)
 ==== Info on pseudopotentials ====
  PAW calculation
  Number of pseudopotentials ..    6
  Number of types of atoms   ..    6
  Scalar calculation (no spin-orbit term)
  Nonlocal part applied using real spherical harmonics
  Max number of non-local projectors over l and type   3
  Highest angular momentum +1 .......   4
  Max number of (l,n)   components ..   8
  Max number of (l,m,n) components ..  32
 
 Pseudo-Core Charge Info: 
   Number of radial points for pseudo-core charge ..    1
   XC core-correction treatment (optnlxccc) ........    1
   Radius for pseudo-core charge for each type ..... 
 
  - Atom type    1 has pseudo-core radius .. 80.0000
  - Atom type    2 has pseudo-core radius .. 80.0000
  - Atom type    3 has pseudo-core radius .. 80.0000
  - Atom type    4 has pseudo-core radius .. 80.0000
  - Atom type    5 has pseudo-core radius .. 81.0530
  - Atom type    6 has pseudo-core radius .. 80.0000
 
 Info on the Q-grid used for form factors in spline form: 
   Number of q-points for radial functions ffspl ..   4235
   Number of q-points for vlspl ...................   5989
   vloc is computed in Reciprocal Space
 
  XC functional for type 1 is -101130
  XC functional for type 2 is -101130
  XC functional for type 3 is -101130
  XC functional for type 4 is -101130
  XC functional for type 5 is -101130
  XC functional for type 6 is -101130
 
 newkpt: spin channel isppol2 =     1
 wfconv:   204 bands initialized randomly with npw=  1624, for ikpt=     1
 newkpt: spin channel isppol2 =     2
_setup2: Arith. and geom. avg. npw (full set) are    1622.500    1622.499
 
 
 ******************************************
 DFT+U Method used: FLL
 ******************************************
 
 pawpuxinit : for species    1
   number of projectors is   2
 
 pawpuxinit : dmatpuopt=2 
   PAW+U: dens. mat. constructed by selecting contribution
          for each angular momentum to the density (inside PAW augm. region(s))

   Slater parameters F^0, F^2, F^4, F^6 are   0.2572   0.3066   0.2049   0.1516
 About to read data(r) from: /scratch/users/j/b/jbouq/LumiWork_tuto/delta_SCF_no_BS/flow_deltaSCF/w0/t2/indata/in_DEN
 
--- !COMMENT
src_file: m_ioarr.F90
src_line: 1127
message: |
    Different FFT meshes. Caller: [80, 80, 120] . File: [80, 80, 150] . Will interpolate rhor(r).
...
 
 
================================================================================
 
          - hdr_check: checking restart file header for consistency -
 
 
          current calculation                           restart file
          -------------------                           ------------
 
  calculation expects a density             |  input file contains a density
. ABINIT  code version 9.4.2                |  ABINIT  code version 9.4.2
. date 20210825 bantot      816 natom   72  |  date 20210825 bantot      816 natom   72
  nkpt       2 nsym  4 ngfft  80,  80, 120  |  nkpt       2 nsym  4 ngfft  80,  80, 120
  ntypat  6 ecut_eff  15.0000000            |  ntypat  6 ecut_eff  16.5375000
  usepaw  1                                 |  usepaw  1
  usewvl  0                                 |  usewvl  0
  rprimd:                                   |  rprimd:
    15.1390449   0.0381571   0.0000000      |    15.1390449   0.0381571   0.0000000
     0.0381571  15.1389269   0.0000000      |     0.0381571  15.1389269   0.0000000
     0.0000000   0.0000000  24.2860350      |     0.0000000   0.0000000  24.2860350
 
--- !WARNING
src_file: m_hdr.F90
src_line: 4220
message: |
    input ecut_eff=   15.000000 /= disk file ecut_eff=   16.537500.
...
 
  PAW: ecutdg   30.000000                   |  PAW: ecutdg   30.000000
  nband:                                    |  nband:
   204 204 204 204                          |   204 204 204 204
  symafm:                                   |  symafm:
    1  1  1  1                              |    1  1  1  1
  symrel:                                   |  symrel:
    1  0  0  0  1  0  0  0  1               |    1  0  0  0  1  0  0  0  1
   -1  0  0  0 -1  0  0  0 -1               |   -1  0  0  0 -1  0  0  0 -1
   -1  0  0  0 -1  0  0  0  1               |   -1  0  0  0 -1  0  0  0  1
    1  0  0  0  1  0  0  0 -1               |    1  0  0  0  1  0  0  0 -1
  typat:                                    |  typat:
    1  2  2  2  2  2  2  2  3  3  3  3      |    1  2  2  2  2  2  2  2  3  3  3  3
    3  3  3  3  3  3  3  3  3  3  3  3      |    3  3  3  3  3  3  3  3  3  3  3  3
    4  4  4  4  4  4  4  4  4  4  4  4      |    4  4  4  4  4  4  4  4  4  4  4  4
    4  4  4  4  5  5  5  5  5  5  5  5      |    4  4  4  4  5  5  5  5  5  5  5  5
    5  5  5  5  5  5  5  5  6  6  6  6      |    5  5  5  5  5  5  5  5  6  6  6  6
    6  6  6  6  6  6  6  6  6  6  6  6      |    6  6  6  6  6  6  6  6  6  6  6  6
  so_psp  :                                 |  so_psp  :
    1  1  1  1  1  1                        |    1  1  1  1  1  1
  istwfk:                                   |  istwfk:
    1  1                                    |    1  1
 
--- !WARNING
src_file: m_hdr.F90
src_line: 4441
message: |
    input ival=0 not equal disk file ival=179
...
 
  kpt:                                      |  kpt:
     0.2500000   0.2500000   0.2500000      |     0.2500000   0.2500000   0.2500000
    -0.2500000   0.2500000   0.2500000      |    -0.2500000   0.2500000   0.2500000
  wtk:                                      |  wtk:
    0.500  0.500                            |    0.500  0.500
  occ:                                      |  occ:
   1.0 1.0 1.0 1.0 1.0 1.0 1.0 1.0 1.0      |   1.0 1.0 1.0 1.0 1.0 1.0 1.0 1.0 1.0
   1.0 1.0 1.0 1.0 1.0 1.0 1.0 1.0 1.0      |   1.0 1.0 1.0 1.0 1.0 1.0 1.0 1.0 1.0
   1.0 1.0 1.0 1.0 1.0 1.0 1.0 1.0 1.0      |   1.0 1.0 1.0 1.0 1.0 1.0 1.0 1.0 1.0
   1.0 1.0 1.0 1.0 1.0 1.0 1.0 1.0 1.0      |   1.0 1.0 1.0 1.0 1.0 1.0 1.0 1.0 1.0
   1.0 1.0 1.0 1.0 1.0 1.0 1.0 1.0 1.0      |   1.0 1.0 1.0 1.0 1.0 1.0 1.0 1.0 1.0
  tnons:                                    |  tnons:
     0.0000000   0.0000000   0.0000000      |     0.0000000   0.0000000   0.0000000
    -0.0000000  -0.0000000   0.2500000      |    -0.0000000   0.0000000   0.2500000
    -0.0000000  -0.0000000   0.0000000      |    -0.0000000   0.0000000   0.0000000
     0.0000000   0.0000000   0.2500000      |     0.0000000   0.0000000   0.2500000
   znucl:                                   |   znucl:
   63.00 38.00  3.00 13.00  7.00  8.00      |       63.00 38.00  3.00 13.00  7.00  8.00
  pseudopotential atom type  1:             |  pseudopotential atom type  1:
  pspso   0 pspxc -101130  lmn_size  32     |  pspso   0 pspxc -101130  lmn_size  32
  pspdat 27061961 pspcod   17 zion  17.0    |  pspdat 27061961 pspcod   17 zion  17.0
  pseudopotential atom type  2:             |  pseudopotential atom type  2:
  pspso   0 pspxc -101130  lmn_size  18     |  pspso   0 pspxc -101130  lmn_size  18
  pspdat 27061961 pspcod   17 zion  10.0    |  pspdat 27061961 pspcod   17 zion  10.0
  pseudopotential atom type  3:             |  pseudopotential atom type  3:
  pspso   0 pspxc -101130  lmn_size   9     |  pspso   0 pspxc -101130  lmn_size   9
  pspdat 27061961 pspcod   17 zion   3.0    |  pspdat 27061961 pspcod   17 zion   3.0
  pseudopotential atom type  4:             |  pseudopotential atom type  4:
  pspso   0 pspxc -101130  lmn_size   8     |  pspso   0 pspxc -101130  lmn_size   8
  pspdat 27061961 pspcod   17 zion   3.0    |  pspdat 27061961 pspcod   17 zion   3.0
  pseudopotential atom type  5:             |  pseudopotential atom type  5:
  pspso   0 pspxc -101130  lmn_size   8     |  pspso   0 pspxc -101130  lmn_size   8
  pspdat 27061961 pspcod   17 zion   5.0    |  pspdat 27061961 pspcod   17 zion   5.0
  pseudopotential atom type  6:             |  pseudopotential atom type  6:
  pspso   0 pspxc -101130  lmn_size   8     |  pspso   0 pspxc -101130  lmn_size   8
  pspdat 27061961 pspcod   17 zion   6.0    |  pspdat 27061961 pspcod   17 zion   6.0
  xred:                                     |  xred:
     0.5000000  -0.0000000   0.1250000      |     0.5000000  -0.0000000   0.1250000
     0.5000000  -0.0000000   0.3751301      |     0.5000000  -0.0000000   0.3751301
     0.5000000  -0.0000000   0.6250000      |     0.5000000  -0.0000000   0.6250000
     0.5000000  -0.0000000   0.8748699      |     0.5000000  -0.0000000   0.8748699
    -0.0000000   0.5000000  -0.0000157      |     0.0000000   0.5000000  -0.0000157
    -0.0000000   0.5000000   0.2500157      |     0.0000000   0.5000000   0.2500157
    -0.0000000   0.5000000   0.5000302      |     0.0000000   0.5000000   0.5000302
    -0.0000000   0.5000000   0.7499698      |     0.0000000   0.5000000   0.7499698
     0.1254626   0.8228277   0.1250000      |     0.1254626   0.8228277   0.1250000
     0.1255682   0.8227420   0.3752306      |     0.1255682   0.8227420   0.3752306
     0.1258688   0.8229124   0.6250000      |     0.1258688   0.8229124   0.6250000
     0.1255682   0.8227420   0.8747694      |     0.1255682   0.8227420   0.8747694
     0.8745374   0.1771723   0.1250000      |     0.8745374   0.1771723   0.1250000
     0.8744318   0.1772580   0.3752306      |     0.8744318   0.1772580   0.3752306
     0.8741312   0.1770876   0.6250000      |     0.8741312   0.1770876   0.6250000
     0.8744318   0.1772580   0.8747694      |     0.8744318   0.1772580   0.8747694
     0.1768684   0.1263092  -0.0000325      |     0.1768684   0.1263092  -0.0000325
     0.1768684   0.1263092   0.2500325      |     0.1768684   0.1263092   0.2500325
     0.1771615   0.1264002   0.5000352      |     0.1771615   0.1264002   0.5000352
     0.1771615   0.1264002   0.7499648      |     0.1771615   0.1264002   0.7499648
     0.8231316   0.8736908  -0.0000325      |     0.8231316   0.8736908  -0.0000325
     0.8231316   0.8736908   0.2500325      |     0.8231316   0.8736908   0.2500325
     0.8228385   0.8735998   0.5000352      |     0.8228385   0.8735998   0.5000352
     0.8228385   0.8735998   0.7499648      |     0.8228385   0.8735998   0.7499648
     0.3528306   0.6843911  -0.0000022      |     0.3528306   0.6843911  -0.0000022
     0.3528306   0.6843911   0.2500022      |     0.3528306   0.6843911   0.2500022
     0.3530871   0.6844326   0.5000239      |     0.3530871   0.6844326   0.5000239
     0.3530871   0.6844326   0.7499761      |     0.3530871   0.6844326   0.7499761
     0.6471694   0.3156089  -0.0000022      |     0.6471694   0.3156089  -0.0000022
     0.6471694   0.3156089   0.2500022      |     0.6471694   0.3156089   0.2500022
     0.6469129   0.3155674   0.5000239      |     0.6469129   0.3155674   0.5000239
     0.6469129   0.3155674   0.7499761      |     0.6469129   0.3155674   0.7499761
     0.3161017   0.3532441   0.1250000      |     0.3161017   0.3532441   0.1250000
     0.3159743   0.3535166   0.3751417      |     0.3159743   0.3535166   0.3751417
     0.3159570   0.3534563   0.6250000      |     0.3159570   0.3534563   0.6250000
     0.3159743   0.3535166   0.8748583      |     0.3159743   0.3535166   0.8748583
     0.6838983   0.6467559   0.1250000      |     0.6838983   0.6467559   0.1250000
     0.6840257   0.6464834   0.3751417      |     0.6840257   0.6464834   0.3751417
     0.6840430   0.6465437   0.6250000      |     0.6840430   0.6465437   0.6250000
     0.6840257   0.6464834   0.8748583      |     0.6840257   0.6464834   0.8748583
     0.5845619   0.7298005  -0.0001489      |     0.5845619   0.7298005  -0.0001489
     0.5845619   0.7298005   0.2501489      |     0.5845619   0.7298005   0.2501489
     0.5847137   0.7300690   0.5000548      |     0.5847137   0.7300690   0.5000548
     0.5847137   0.7300690   0.7499452      |     0.5847137   0.7300690   0.7499452
     0.4154381   0.2701995  -0.0001489      |     0.4154381   0.2701995  -0.0001489
     0.4154381   0.2701995   0.2501489      |     0.4154381   0.2701995   0.2501489
     0.4152863   0.2699310   0.5000548      |     0.4152863   0.2699310   0.5000548
     0.4152863   0.2699310   0.7499452      |     0.4152863   0.2699310   0.7499452
     0.2700484   0.5851782   0.1250000      |     0.2700484   0.5851782   0.1250000
     0.2700823   0.5853414   0.3750778      |     0.2700823   0.5853414   0.3750778
     0.2701025   0.5853363   0.6250000      |     0.2701025   0.5853363   0.6250000
     0.2700823   0.5853414   0.8749222      |     0.2700823   0.5853414   0.8749222
     0.7299516   0.4148218   0.1250000      |     0.7299516   0.4148218   0.1250000
     0.7299177   0.4146586   0.3750778      |     0.7299177   0.4146586   0.3750778
     0.7298975   0.4146637   0.6250000      |     0.7298975   0.4146637   0.6250000
     0.7299177   0.4146586   0.8749222      |     0.7299177   0.4146586   0.8749222
     0.2544616   0.8927634  -0.0003164      |     0.2544616   0.8927634  -0.0003164
     0.2544616   0.8927634   0.2503164      |     0.2544616   0.8927634   0.2503164
     0.2557154   0.8931745   0.5000566      |     0.2557154   0.8931745   0.5000566
     0.2557154   0.8931745   0.7499434      |     0.2557154   0.8931745   0.7499434
     0.7455384   0.1072366  -0.0003164      |     0.7455384   0.1072366  -0.0003164
     0.7455384   0.1072366   0.2503164      |     0.7455384   0.1072366   0.2503164
     0.7442846   0.1068255   0.5000566      |     0.7442846   0.1068255   0.5000566
     0.7442846   0.1068255   0.7499434      |     0.7442846   0.1068255   0.7499434
     0.1077313   0.2568763   0.1250000      |     0.1077313   0.2568763   0.1250000
     0.1076990   0.2569411   0.3750677      |     0.1076990   0.2569411   0.3750677
     0.1076038   0.2568860   0.6250000      |     0.1076038   0.2568860   0.6250000
     0.1076990   0.2569411   0.8749323      |     0.1076990   0.2569411   0.8749323
     0.8922687   0.7431237   0.1250000      |     0.8922687   0.7431237   0.1250000
     0.8923010   0.7430589   0.3750677      |     0.8923010   0.7430589   0.3750677
     0.8923962   0.7431140   0.6250000      |     0.8923962   0.7431140   0.6250000
     0.8923010   0.7430589   0.8749323      |     0.8923010   0.7430589   0.8749323
 
--- !WARNING
src_file: m_hdr.F90
src_line: 4718
message: |
    Illegal restart of non-self-consistent calculation
...
 
  Indeed, critical differences between current calculation and
  restart file have been detected in:
        * the plane-wave cutoff
================================================================================
 read_rhor completed. cpu:  0.07 [s] , wall:  0.53 [s] <<< TIME
 
================================================================================
 Enabling timelimit check in function: scfcv_core with timelimit: 
 1-00:00:00 [days]
 FFT (fine) grid used in SCF cycle:
 
 getcut: wavevector=  0.0000  0.0000  0.0000  ngfft=  80  80 120
         ecut(hartree)=     30.000   => boxcut(ratio)=   2.00401
 
 1/G**2 cut-off applied in the following step : cutoff-mode = CRYSTAL
 
 1/G**2 cut-off applied in the following step : cutoff-mode = CRYSTAL
 
 1/G**2 cut-off applied in the following step : cutoff-mode = CRYSTAL
 
========== DFT+U DATA ===================================================
 
====== For Atom    1, occupations for correlated orbitals. l =   3
 
Atom   1. Occupations for spin up =   6.82092
Atom   1. Occupations for spin down =   0.01565
=> On atom   1, local Mag. is     -0.68052763E+01
 
== Calculated occupation matrix for correlated orbitals:
 
Calculated occupation matrix for component up
     0.97433    0.00000   -0.00008    0.00000   -0.00108    0.00000   -0.00170
     0.00000    0.97889    0.00000    0.00032    0.00000    0.00528    0.00000
    -0.00008    0.00000    0.97155    0.00000    0.00128    0.00000   -0.00020
     0.00000    0.00032    0.00000    0.96845    0.00000   -0.00029    0.00000
    -0.00108    0.00000    0.00128    0.00000    0.97520    0.00000   -0.00189
     0.00000    0.00528    0.00000   -0.00029    0.00000    0.98069    0.00000
    -0.00170    0.00000   -0.00020    0.00000   -0.00189    0.00000    0.97182
 
Calculated occupation matrix for component down
     0.00168    0.00000    0.00001    0.00000    0.00037    0.00000   -0.00008
     0.00000    0.00340    0.00000   -0.00023    0.00000    0.00223    0.00000
     0.00001    0.00000    0.00177    0.00000    0.00016    0.00000    0.00020
     0.00000   -0.00023    0.00000    0.00174    0.00000    0.00026    0.00000
     0.00037    0.00000    0.00016    0.00000    0.00176    0.00000    0.00005
     0.00000    0.00223    0.00000    0.00026    0.00000    0.00381    0.00000
    -0.00008    0.00000    0.00020    0.00000    0.00005    0.00000    0.00148
 average electrostatic smooth potential [Ha] , [eV]      0.000000        0.000000
 
 ****** Psp strength Dij in Ha (atom      1) *****
 Component up:
  -0.73599  -0.07753   0.00000  -0.00001  -0.00000   0.00000  -0.00002  -0.00000  -0.00003   0.00000  -0.00001   0.00000 ...
  -0.07753  -0.09188  -0.00000   0.00000   0.00000   0.00000  -0.00001  -0.00000  -0.00000   0.00000   0.00001   0.00000 ...
   0.00000  -0.00000  -0.72099  -0.00000   0.00005   0.15335   0.00000  -0.00019   0.00000   0.00000   0.00000   0.00000 ...
  -0.00001   0.00000  -0.00000  -0.72090  -0.00000   0.00000   0.15309   0.00000   0.00000  -0.00000   0.00000   0.00000 ...
  -0.00000   0.00000   0.00005  -0.00000  -0.72085  -0.00019   0.00000   0.15294  -0.00000   0.00000  -0.00000   0.00000 ...
   0.00000   0.00000   0.15335   0.00000  -0.00019   0.88280  -0.00000   0.00007  -0.00000  -0.00001  -0.00000  -0.00000 ...
  -0.00002  -0.00001   0.00000   0.15309   0.00000  -0.00000   0.88287  -0.00000  -0.00000   0.00000  -0.00001  -0.00000 ...
  -0.00000  -0.00000  -0.00019   0.00000   0.15294   0.00007  -0.00000   0.88293   0.00000  -0.00000   0.00000  -0.00001 ...
  -0.00003  -0.00000   0.00000   0.00000  -0.00000  -0.00000  -0.00000   0.00000  -0.18734  -0.00000   0.00000  -0.00000 ...
   0.00000   0.00000   0.00000  -0.00000   0.00000  -0.00001   0.00000  -0.00000  -0.00000  -0.18734  -0.00000  -0.00000 ...
  -0.00001   0.00001   0.00000   0.00000  -0.00000  -0.00000  -0.00001   0.00000   0.00000  -0.00000  -0.18734   0.00000 ...
   0.00000   0.00000   0.00000   0.00000   0.00000  -0.00000  -0.00000  -0.00001  -0.00000  -0.00000   0.00000  -0.18734 ...
   ...  only 12  components have been written...
 Component down:
  -0.65669  -0.06835   0.00000  -0.00001  -0.00000   0.00000  -0.00002  -0.00000   0.00001   0.00000  -0.00007   0.00000 ...
  -0.06835  -0.09095  -0.00000   0.00000   0.00000   0.00000  -0.00001  -0.00000   0.00001   0.00000  -0.00001   0.00000 ...
   0.00000  -0.00000  -0.65512  -0.00000   0.00012   0.08282   0.00000  -0.00026   0.00000   0.00000   0.00000   0.00000 ...
  -0.00001   0.00000  -0.00000  -0.65511  -0.00000   0.00000   0.08264   0.00000   0.00000  -0.00000   0.00000   0.00000 ...
  -0.00000   0.00000   0.00012  -0.00000  -0.65484  -0.00026   0.00000   0.08231  -0.00000   0.00000  -0.00000   0.00000 ...
   0.00000   0.00000   0.08282   0.00000  -0.00026   0.95394  -0.00000   0.00014  -0.00000  -0.00001  -0.00000  -0.00000 ...
  -0.00002  -0.00001   0.00000   0.08264   0.00000  -0.00000   0.95395  -0.00000  -0.00000   0.00000  -0.00001  -0.00000 ...
  -0.00000  -0.00000  -0.00026   0.00000   0.08231   0.00014  -0.00000   0.95424   0.00000  -0.00000   0.00000  -0.00001 ...
   0.00001   0.00001   0.00000   0.00000  -0.00000  -0.00000  -0.00000   0.00000  -0.17271  -0.00000  -0.00001  -0.00000 ...
   0.00000   0.00000   0.00000  -0.00000   0.00000  -0.00001   0.00000  -0.00000  -0.00000  -0.17267  -0.00000   0.00001 ...
  -0.00007  -0.00001   0.00000   0.00000  -0.00000  -0.00000  -0.00001   0.00000  -0.00001  -0.00000  -0.17280   0.00000 ...
   0.00000   0.00000   0.00000   0.00000   0.00000  -0.00000  -0.00000  -0.00001  -0.00000   0.00001   0.00000  -0.17264 ...
   ...  only 12  components have been written...
 
 
 ITER STEP NUMBER     1
 Max number of non-self-consistent loops: 2
 You should try to get npband*bandpp=  204
 For information matrix size is   110432
- Will use non-blocking ialltoall for MPI-FFT
 You should try to get npband*bandpp=  204
 For information matrix size is   110432
 
 PAW TEST:
 ========= Values of RHOIJ before symetrization =========
 
 Atom #  1 - Spin component 1
   0.99425  -0.00085  -0.00010   0.00010   0.00003  -0.00011  -0.00003   0.00000  -0.00055  -0.00010  -0.00081   0.00013 ...
  -0.00085   0.12567   0.00041  -0.00029  -0.00008  -0.00004   0.00013   0.00009  -0.00231   0.00077   0.00248   0.00040 ...
  -0.00010   0.00041   0.99863  -0.00002   0.00048   0.01396  -0.00000  -0.00038  -0.00003  -0.00029   0.00008   0.00021 ...
   0.00010  -0.00029  -0.00002   0.99721  -0.00002   0.00003   0.01526  -0.00001   0.00024  -0.00002   0.00002  -0.00004 ...
   0.00003  -0.00008   0.00048  -0.00002   0.99838  -0.00037   0.00001   0.01421  -0.00032  -0.00041   0.00000  -0.00033 ...
  -0.00011  -0.00004   0.01396   0.00003  -0.00037   0.00454  -0.00000   0.00004  -0.00000   0.00007   0.00006   0.00002 ...
  -0.00003   0.00013  -0.00000   0.01526   0.00001  -0.00000   0.00438  -0.00000  -0.00005   0.00011   0.00003   0.00005 ...
   0.00000   0.00009  -0.00038  -0.00001   0.01421   0.00004  -0.00000   0.00389   0.00007   0.00007  -0.00008   0.00009 ...
  -0.00055  -0.00231  -0.00003   0.00024  -0.00032  -0.00000  -0.00005   0.00007   0.03225  -0.00015  -0.00021   0.00042 ...
  -0.00010   0.00077  -0.00029  -0.00002  -0.00041   0.00007   0.00011   0.00007  -0.00015   0.05706   0.00017  -0.00193 ...
  -0.00081   0.00248   0.00008   0.00002   0.00000   0.00006   0.00003  -0.00008  -0.00021   0.00017   0.01534   0.00020 ...
   0.00013   0.00040   0.00021  -0.00004  -0.00033   0.00002   0.00005   0.00009   0.00042  -0.00193   0.00020   0.04887 ...
   ...  only 12  components have been written...
 Atom #  1 - Spin component 2
   0.93212   0.12847  -0.00021   0.00017   0.00004  -0.00003  -0.00005  -0.00001  -0.00024  -0.00005  -0.00079  -0.00008 ...
   0.12847   0.12134   0.00098  -0.00033  -0.00017  -0.00009  -0.00000   0.00003  -0.00193   0.00014   0.00158  -0.00042 ...
[...]
                       4.6978004701E+00  5.8583626769E+00 -1.9141503410E-03
                       4.6978004701E+00  5.8583626769E+00  3.2148181983E+00
                       4.6990215655E+00  5.8605170226E+00  6.4265129545E+00
                       4.6990215655E+00  5.8605170226E+00  9.6380072856E+00
                       3.3336289358E+00  2.1730042511E+00 -1.9141503410E-03
                       3.3336289358E+00  2.1730042511E+00  3.2148181983E+00
                       3.3324078403E+00  2.1708499053E+00  6.4265129545E+00
                       3.3324078403E+00  2.1708499053E+00  9.6380072856E+00
                       2.1752377891E+00  4.6934176008E+00  1.6064520240E+00
                       2.1755122445E+00  4.6947262127E+00  4.8203563159E+00
                       2.1756741970E+00  4.6946858403E+00  8.0322601200E+00
                       2.1755122445E+00  4.6947262127E+00  1.1244163924E+01
                       5.8561916167E+00  3.3379493271E+00  1.6064520240E+00
                       5.8559171614E+00  3.3366407152E+00  4.8203563159E+00
                       5.8557552088E+00  3.3366810876E+00  8.0322601200E+00
                       5.8559171614E+00  3.3366407152E+00  1.1244163924E+01
                       2.0565788173E+00  7.1572216329E+00 -4.0667076381E-03
                       2.0565788173E+00  7.1572216329E+00  3.2169707556E+00
                       2.0666318964E+00  7.1605407112E+00  6.4265354062E+00
                       2.0666318964E+00  7.1605407112E+00  9.6379848338E+00
                       5.9748505885E+00  8.7414529499E-01 -4.0667076381E-03
                       5.9748505885E+00  8.7414529499E-01  3.2169707556E+00
                       5.9647975095E+00  8.7082621672E-01  6.4265354062E+00
                       5.9647975095E+00  8.7082621672E-01  9.6379848338E+00
                       8.6824821949E-01  2.0600565396E+00  1.6064520240E+00
                       8.6799065423E-01  2.0605749456E+00  4.8202262909E+00
                       8.6722666715E-01  2.0601317617E+00  8.0322601200E+00
                       8.6799065423E-01  2.0605749456E+00  1.1244293949E+01
                       7.1631811863E+00  5.9713103883E+00  1.6064520240E+00
                       7.1634387516E+00  5.9707919823E+00  4.8202262909E+00
                       7.1642027387E+00  5.9712351662E+00  8.0322601200E+00
                       7.1634387516E+00  5.9707919823E+00  1.1244293949E+01
            xcart      7.5695224642E+00  1.9078552100E-02  3.0357543710E+00
                       7.5695224642E+00  1.9078552100E-02  9.1104218761E+00
                       7.5695224642E+00  1.9078552100E-02  1.5178771855E+01
                       7.5695224642E+00  1.9078552100E-02  2.1247121834E+01
                       1.9078552100E-02  7.5694634311E+00 -3.8201703448E-04
                       1.9078552100E-02  7.5694634311E+00  6.0718907590E+00
                       1.9078552100E-02  7.5694634311E+00  1.2143752013E+01
                       1.9078552100E-02  7.5694634311E+00  1.8213791697E+01
                       1.9307800287E+00  1.2461515459E+01  3.0357543710E+00
                       1.9323761422E+00  1.2460221888E+01  9.1128638976E+00
                       1.9369326589E+00  1.2462813201E+01  1.5178771855E+01
                       1.9323761422E+00  1.2460221888E+01  2.1244679812E+01
                       1.3246422004E+01  2.7155685078E+00  3.0357543710E+00
                       1.3244825890E+01  2.7168620780E+00  9.1128638976E+00
                       1.3240269374E+01  2.7142707658E+00  1.5178771855E+01
                       1.3244825890E+01  2.7168620780E+00  2.1244679812E+01
                       2.6824389274E+00  1.9189346481E+00 -7.8996592140E-04
                       2.6824389274E+00  1.9189346481E+00  6.0722987079E+00
                       2.6868790553E+00  1.9203233169E+00  1.2143872102E+01
                       2.6868790553E+00  1.9203233169E+00  1.8213671608E+01
                       1.2494763105E+01  1.3258149318E+01 -7.8996592140E-04
                       1.2494763105E+01  1.3258149318E+01  6.0722987079E+00
                       1.2490322977E+01  1.3256760650E+01  1.2143872102E+01
                       1.2490322977E+01  1.3256760650E+01  1.8213671608E+01
                       5.3676320171E+00  1.0374409711E+01 -5.3649772227E-05
                       5.3676320171E+00  1.0374409711E+01  6.0715623917E+00
                       5.3715167588E+00  1.0375048041E+01  1.2143599110E+01
                       5.3715167588E+00  1.0375048041E+01  1.8213944600E+01
                       9.8095700155E+00  4.8026742554E+00 -5.3649772227E-05
                       9.8095700155E+00  4.8026742554E+00  6.0715623917E+00
                       9.8056852738E+00  4.8020359256E+00  1.2143599110E+01
                       9.8056852738E+00  4.8020359256E+00  1.8213944600E+01
                       4.7989561095E+00  5.3597988741E+00  3.0357543710E+00
                       4.7970378615E+00  5.3639183503E+00  9.1107046773E+00
                       4.7967736074E+00  5.3630050595E+00  1.5178771855E+01
                       4.7970378615E+00  5.3639183503E+00  2.1246839033E+01
                       1.0378245923E+01  9.8172850924E+00  3.0357543710E+00
                       1.0380164171E+01  9.8131656162E+00  9.1107046773E+00
                       1.0380428425E+01  9.8140789070E+00  1.5178771855E+01
                       1.0380164171E+01  9.8131656162E+00  2.1246839033E+01
                       8.8775563153E+00  1.1070701046E+01 -3.6172199217E-03
                       8.8775563153E+00  1.1070701046E+01  6.0751259619E+00
                       8.8798638514E+00  1.1074772170E+01  1.2144349473E+01
                       8.8798638514E+00  1.1074772170E+01  1.8213194236E+01
                       6.2996457173E+00  4.1063829201E+00 -3.6172199217E-03
                       6.2996457173E+00  4.1063829201E+00  6.0751259619E+00
                       6.2973381812E+00  4.1023117967E+00  1.2144349473E+01
                       6.2973381812E+00  4.1023117967E+00  1.8213194236E+01
                       4.1106036953E+00  8.8692738928E+00  3.0357543710E+00
                       4.1111223408E+00  8.8717468110E+00  9.1091532999E+00
                       4.1114283867E+00  8.8716705181E+00  1.5178771855E+01
                       4.1111223408E+00  8.8717468110E+00  2.1248390410E+01
                       1.1066598337E+01  6.3078100737E+00  3.0357543710E+00
                       1.1066079692E+01  6.3053371555E+00  9.1091532999E+00
                       1.1065773646E+01  6.3054134484E+00  1.5178771855E+01
                       1.1066079692E+01  6.3053371555E+00  2.1248390410E+01
                       3.8863707354E+00  1.3525188759E+01 -7.6849636985E-03
                       3.8863707354E+00  1.3525188759E+01  6.0791937057E+00
                       3.9053683016E+00  1.3531460908E+01  1.2144391901E+01
                       3.9053683016E+00  1.3531460908E+01  1.8213151809E+01
                       1.1290831297E+01  1.6518952079E+00 -7.6849636985E-03
                       1.1290831297E+01  1.6518952079E+00  6.0791937057E+00
                       1.1271833731E+01  1.6456230589E+00  1.2144391901E+01
                       1.1271833731E+01  1.6456230589E+00  1.8213151809E+01
                       1.6407513502E+00  3.8929426781E+00  3.0357543710E+00
                       1.6402646224E+00  3.8939223235E+00  9.1089075884E+00
                       1.6388208961E+00  3.8930848272E+00  1.5178771855E+01
                       1.6402646224E+00  3.8939223235E+00  2.1248636121E+01
                       1.3536450682E+01  1.1284141288E+01  3.0357543710E+00
                       1.3536937410E+01  1.1283161643E+01  9.1089075884E+00
                       1.3538381137E+01  1.1283999139E+01  1.5178771855E+01
                       1.3536937410E+01  1.1283161643E+01  2.1248636121E+01
             xred      5.0000000000E-01 -2.1684043450E-19  1.2500000000E-01
                       5.0000000000E-01 -2.1684043450E-19  3.7513006500E-01
                       5.0000000000E-01 -2.1684043450E-19  6.2500000000E-01
                       5.0000000000E-01 -2.1684043450E-19  8.7486993500E-01
                      -5.5511151231E-17  5.0000000000E-01 -1.5729905478E-05
                      -5.5511151231E-17  5.0000000000E-01  2.5001572991E-01
                      -5.5511151231E-17  5.0000000000E-01  5.0003024490E-01
                      -5.5511151231E-17  5.0000000000E-01  7.4996975510E-01
                       1.2546255830E-01  8.2282768680E-01  1.2500000000E-01
                       1.2556820460E-01  8.2274197390E-01  3.7523061750E-01
                       1.2586875290E-01  8.2291238520E-01  6.2500000000E-01
                       1.2556820460E-01  8.2274197390E-01  8.7476938250E-01
                       8.7453744170E-01  1.7717231320E-01  1.2500000000E-01
                       8.7443179540E-01  1.7725802610E-01  3.7523061750E-01
                       8.7413124710E-01  1.7708761480E-01  6.2500000000E-01
                       8.7443179540E-01  1.7725802610E-01  8.7476938250E-01
                       1.7686844490E-01  1.2630920790E-01 -3.2527579016E-05
                       1.7686844490E-01  1.2630920790E-01  2.5003252758E-01
                       1.7716150540E-01  1.2640019760E-01  5.0003518970E-01
                       1.7716150540E-01  1.2640019760E-01  7.4996481030E-01
                       8.2313155510E-01  8.7369079210E-01 -3.2527579016E-05
                       8.2313155510E-01  8.7369079210E-01  2.5003252758E-01
                       8.2283849460E-01  8.7359980240E-01  5.0003518970E-01
                       8.2283849460E-01  8.7359980240E-01  7.4996481030E-01
                       3.5283055570E-01  6.8439109410E-01 -2.2090790982E-06
                       3.5283055570E-01  6.8439109410E-01  2.5000220908E-01
                       3.5308705520E-01  6.8443261240E-01  5.0002394900E-01
                       3.5308705520E-01  6.8443261240E-01  7.4997605100E-01
                       6.4716944430E-01  3.1560890590E-01 -2.2090790982E-06
                       6.4716944430E-01  3.1560890590E-01  2.5000220908E-01
                       6.4691294480E-01  3.1556738760E-01  5.0002394900E-01
                       6.4691294480E-01  3.1556738760E-01  7.4997605100E-01
                       3.1610166680E-01  3.5324414990E-01  1.2500000000E-01
                       3.1597427150E-01  3.5351658250E-01  3.7514170960E-01
                       3.1595696830E-01  3.5345629880E-01  6.2500000000E-01
                       3.1597427150E-01  3.5351658250E-01  8.7485829040E-01
                       6.8389833320E-01  6.4675585010E-01  1.2500000000E-01
                       6.8402572850E-01  6.4648341750E-01  3.7514170960E-01
                       6.8404303170E-01  6.4654370120E-01  6.2500000000E-01
                       6.8402572850E-01  6.4648341750E-01  8.7485829040E-01
                       5.8456192480E-01  7.2980046450E-01 -1.4894238300E-04
                       5.8456192480E-01  7.2980046450E-01  2.5014894238E-01
                       5.8471367080E-01  7.3006899960E-01  5.0005484590E-01
                       5.8471367080E-01  7.3006899960E-01  7.4994515410E-01
                       4.1543807520E-01  2.7019953550E-01 -1.4894238300E-04
                       4.1543807520E-01  2.7019953550E-01  2.5014894238E-01
                       4.1528632920E-01  2.6993100040E-01  5.0005484590E-01
                       4.1528632920E-01  2.6993100040E-01  7.4994515410E-01
                       2.7004840860E-01  5.8517817730E-01  1.2500000000E-01
                       2.7008225590E-01  5.8534144030E-01  3.7507783020E-01
                       2.7010248440E-01  5.8533634980E-01  6.2500000000E-01
                       2.7008225590E-01  5.8534144030E-01  8.7492216980E-01
                       7.2995159140E-01  4.1482182270E-01  1.2500000000E-01
                       7.2991774410E-01  4.1465855970E-01  3.7507783020E-01
                       7.2989751560E-01  4.1466365020E-01  6.2500000000E-01
                       7.2991774410E-01  4.1465855970E-01  8.7492216980E-01
                       2.5446159180E-01  8.9276336190E-01 -3.1643550331E-04
                       2.5446159180E-01  8.9276336190E-01  2.5031643550E-01
                       2.5571542770E-01  8.9317450770E-01  5.0005659290E-01
                       2.5571542770E-01  8.9317450770E-01  7.4994340710E-01
                       7.4553840820E-01  1.0723663810E-01 -3.1643550331E-04
                       7.4553840820E-01  1.0723663810E-01  2.5031643550E-01
                       7.4428457230E-01  1.0682549230E-01  5.0005659290E-01
                       7.4428457230E-01  1.0682549230E-01  7.4994340710E-01
                       1.0773134640E-01  2.5687632930E-01  1.2500000000E-01
                       1.0769903260E-01  2.5694112110E-01  3.7506771280E-01
                       1.0760380700E-01  2.5688604040E-01  6.2500000000E-01
                       1.0769903260E-01  2.5694112110E-01  8.7493228720E-01
                       8.9226865360E-01  7.4312367070E-01  1.2500000000E-01
                       8.9230096740E-01  7.4305887890E-01  3.7506771280E-01
                       8.9239619300E-01  7.4311395960E-01  6.2500000000E-01
                       8.9230096740E-01  7.4305887890E-01  8.7493228720E-01
            znucl       63.00000   38.00000    3.00000   13.00000    7.00000    8.00000
 
================================================================================
  

================================================================================

 Suggested references for the acknowledgment of ABINIT usage.

 The users of ABINIT have little formal obligations with respect to the ABINIT group
 (those specified in the GNU General Public License, http://www.gnu.org/copyleft/gpl.txt).
 However, it is common practice in the scientific literature,
 to acknowledge the efforts of people that have made the research possible.
 In this spirit, please find below suggested citations of work written by ABINIT developers,
 corresponding to implementations inside of ABINIT that you have used in the present run.
 Note also that it will be of great value to readers of publications presenting these results,
 to read papers enabling them to understand the theoretical formalism and details
 of the ABINIT implementation.
 For information on why they are suggested, see also https://docs.abinit.org/theory/acknowledgments.
-
- [1] Gamma and beta cerium: DFT+U calculations of ground-state parameters.
- B. Amadon, F. Jollet and M. Torrent, Phys. Rev. B 77, 155104 (2008).
- Comment: DFT+U calculations, usepawu/=0. Strong suggestion to cite this paper.
- DOI and bibtex: see https://docs.abinit.org/theory/bibliography/#amadon2008a
-
- [2] Implementation of the Projector Augmented-Wave Method in the ABINIT code.
- M. Torrent, F. Jollet, F. Bottin, G. Zerah, and X. Gonze Comput. Mat. Science 42, 337, (2008).
- Comment: PAW calculations. Strong suggestion to cite this paper.
- DOI and bibtex: see https://docs.abinit.org/theory/bibliography/#torrent2008
-
- [3] Libxc: A library of exchange and correlation functionals for density functional theory.
- M.A.L. Marques, M.J.T. Oliveira, T. Burnus, Computer Physics Communications 183, 2227 (2012).
- Comment: to be cited when LibXC is used (negative value of ixc)
- Strong suggestion to cite this paper.
- DOI and bibtex: see https://docs.abinit.org/theory/bibliography/#marques2012
-
- [4] Large scale ab initio calculations based on three levels of parallelization
- F. Bottin, S. Leroux, A. Knyazev, G. Zerah, Comput. Mat. Science 42, 329, (2008).
- Comment: in case LOBPCG algorithm is used (wfoptalg=4/14/114).
- Strong suggestion to cite this paper in your publications.
- This paper is also available at http://www.arxiv.org/abs/0707.3405
- DOI and bibtex: see https://docs.abinit.org/theory/bibliography/#bottin2008
-
- [5] The Abinit project: Impact, environment and recent developments.
- Computer Phys. Comm. 248, 107042 (2020).
- X.Gonze, B. Amadon, G. Antonius, F.Arnardi, L.Baguet, J.-M.Beuken,
- J.Bieder, F.Bottin, J.Bouchet, E.Bousquet, N.Brouwer, F.Bruneval,
- G.Brunin, T.Cavignac, J.-B. Charraud, Wei Chen, M.Cote, S.Cottenier,
- J.Denier, G.Geneste, Ph.Ghosez, M.Giantomassi, Y.Gillet, O.Gingras,
- D.R.Hamann, G.Hautier, Xu He, N.Helbig, N.Holzwarth, Y.Jia, F.Jollet,
- W.Lafargue-Dit-Hauret, K.Lejaeghere, M.A.L.Marques, A.Martin, C.Martins,
- H.P.C. Miranda, F.Naccarato, K. Persson, G.Petretto, V.Planes, Y.Pouillon,
- S.Prokhorenko, F.Ricci, G.-M.Rignanese, A.H.Romero, M.M.Schmitt, M.Torrent,
- M.J.van Setten, B.Van Troeye, M.J.Verstraete, G.Zerah and J.W.Zwanzig
- Comment: the fifth generic paper describing the ABINIT project.
- Note that a version of this paper, that is not formatted for Computer Phys. Comm. 
- is available at https://www.abinit.org/sites/default/files/ABINIT20.pdf .
- The licence allows the authors to put it on the Web.
- DOI and bibtex: see https://docs.abinit.org/theory/bibliography/#gonze2020
-
- [6] ABINIT: Overview, and focus on selected capabilities
- J. Chem. Phys. 152, 124102 (2020).
- A. Romero, D.C. Allan, B. Amadon, G. Antonius, T. Applencourt, L.Baguet,
- J.Bieder, F.Bottin, J.Bouchet, E.Bousquet, F.Bruneval,
- G.Brunin, D.Caliste, M.Cote,
- J.Denier, C. Dreyer, Ph.Ghosez, M.Giantomassi, Y.Gillet, O.Gingras,
- D.R.Hamann, G.Hautier, F.Jollet, G. Jomard,
- A.Martin, 
- H.P.C. Miranda, F.Naccarato, G.Petretto, N.A. Pike, V.Planes,
- S.Prokhorenko, T. Rangel, F.Ricci, G.-M.Rignanese, M.Royo, M.Stengel, M.Torrent,
- M.J.van Setten, B.Van Troeye, M.J.Verstraete, J.Wiktor, J.W.Zwanziger, and X.Gonze.
- Comment: a global overview of ABINIT, with focus on selected capabilities .
- Note that a version of this paper, that is not formatted for J. Chem. Phys 
- is available at https://www.abinit.org/sites/default/files/ABINIT20_JPC.pdf .
- The licence allows the authors to put it on the Web.
- DOI and bibtex: see https://docs.abinit.org/theory/bibliography/#romero2020
-
- [7] Recent developments in the ABINIT software package.
- Computer Phys. Comm. 205, 106 (2016).
- X.Gonze, F.Jollet, F.Abreu Araujo, D.Adams, B.Amadon, T.Applencourt,
- C.Audouze, J.-M.Beuken, J.Bieder, A.Bokhanchuk, E.Bousquet, F.Bruneval
- D.Caliste, M.Cote, F.Dahm, F.Da Pieve, M.Delaveau, M.Di Gennaro,
- B.Dorado, C.Espejo, G.Geneste, L.Genovese, A.Gerossier, M.Giantomassi,
- Y.Gillet, D.R.Hamann, L.He, G.Jomard, J.Laflamme Janssen, S.Le Roux,
- A.Levitt, A.Lherbier, F.Liu, I.Lukacevic, A.Martin, C.Martins,
- M.J.T.Oliveira, S.Ponce, Y.Pouillon, T.Rangel, G.-M.Rignanese,
- A.H.Romero, B.Rousseau, O.Rubel, A.A.Shukri, M.Stankovski, M.Torrent,
- M.J.Van Setten, B.Van Troeye, M.J.Verstraete, D.Waroquier, J.Wiktor,
- B.Xu, A.Zhou, J.W.Zwanziger.
- Comment: the fourth generic paper describing the ABINIT project.
- Note that a version of this paper, that is not formatted for Computer Phys. Comm. 
- is available at https://www.abinit.org/sites/default/files/ABINIT16.pdf .
- The licence allows the authors to put it on the Web.
- DOI and bibtex: see https://docs.abinit.org/theory/bibliography/#gonze2016
 Proc.   0 individual time (sec): cpu=        109.4  wall=        111.9
 
 Calculation completed.
.Delivered   0 WARNINGs and   0 COMMENTs to log file.

--- !FinalSummary
program: abinit
version: 9.4.2
start_datetime: Wed Aug 25 07:07:20 2021
end_datetime: Wed Aug 25 07:09:12 2021
overall_cpu_time:        4441.0
overall_wall_time:        4468.5
exit_requested_by_user: no 
timelimit: 1-00:00:00 [days]
pseudos: 
    Eu  : e8cbabbafd0770971513c9a2f9d66997
    Sr  : 8d54325f2e386e603a788e5591ec9c3e
    Li  : 2b42cf0006b30297d03a5c0dddd0d05e
    Al  : 38ec013e55acb62b3c542f2043f7ec30
    N   : aea9139712748acddb702675698d6c10
    O   : 13afe03f4a9dc9f4272ab72f1e9ef09a
usepaw: 1
mpi_procs: 40
omp_threads: 1
num_warnings: 0
num_comments: 0
...
