
.Version 9.4.2 of ABINIT 
.(MPI version, prepared for a x86_64_linux_intel19.1 computer) 

.Copyright (C) 1998-2021 ABINIT group . 
 ABINIT comes with ABSOLUTELY NO WARRANTY.
 It is free software, and you are welcome to redistribute it
 under certain conditions (GNU General Public License,
 see ~abinit/COPYING or http://www.gnu.org/copyleft/gpl.txt).

 ABINIT is a project of the Universite Catholique de Louvain,
 Corning Inc. and other collaborators, see ~abinit/doc/developers/contributors.txt .
 Please read https://docs.abinit.org/theory/acknowledgments for suggested
 acknowledgments of the ABINIT effort.
 For more information, see https://www.abinit.org .

.Starting date : Wed 25 Aug 2021.
- ( at 07h07 )
  
- input  file    -> /scratch/users/j/b/jbouq/LumiWork_tuto/delta_SCF_no_BS/flow_deltaSCF/w0/t2/run.abi
- output file    -> /scratch/users/j/b/jbouq/LumiWork_tuto/delta_SCF_no_BS/flow_deltaSCF/w0/t2/run.abo
- root for input  files -> /scratch/users/j/b/jbouq/LumiWork_tuto/delta_SCF_no_BS/flow_deltaSCF/w0/t2/indata/in
- root for output files -> /scratch/users/j/b/jbouq/LumiWork_tuto/delta_SCF_no_BS/flow_deltaSCF/w0/t2/outdata/out
 
- inpspheads : Reading pseudopotential header in XML form from 
-   /home/ucl/modl/jbouq/psps_paw_pbe/Eu.GGA_PBE-JTH.xml
- inpspheads : Reading pseudopotential header in XML form from 
-   /home/ucl/modl/jbouq/psps_paw_pbe/Sr.GGA_PBE-JTH.xml
- inpspheads : Reading pseudopotential header in XML form from 
-   /home/ucl/modl/jbouq/psps_paw_pbe/Li.GGA_PBE-JTH.xml
- inpspheads : Reading pseudopotential header in XML form from 
-   /home/ucl/modl/jbouq/psps_paw_pbe/Al.GGA_PBE-JTH.xml
- inpspheads : Reading pseudopotential header in XML form from 
-   /home/ucl/modl/jbouq/psps_paw_pbe/N.GGA_PBE-JTH.xml
- inpspheads : Reading pseudopotential header in XML form from 
-   /home/ucl/modl/jbouq/psps_paw_pbe/O.GGA_PBE-JTH.xml
 
 Symmetries : space group P2/m (# 10); Bravais mP (primitive monocl.)
================================================================================
 Values of the parameters that define the memory need of the present run
     intxc =       0    ionmov =       0      iscf =      17    lmnmax =      32
     lnmax =       8     mgfft =      90  mpssoang =       4    mqgrid =    5989
     natom =      72  nloc_mem =       2    nspden =       2   nspinor =       1
    nsppol =       2      nsym =       4    n1xccc =       1    ntypat =       6
    occopt =       2   xclevel =       2
-    mband =         204        mffmem =           1         mkmem =           1
       mpw =        1624          nfft =       29160          nkpt =           2
Pmy_natom=        18
 PAW method is used; the additional fine FFT grid is defined by:
   mgfftf=       120    nfftf =     76800
================================================================================
P This job should need less than                     105.119 Mbytes of memory.
  Rough estimation (10% accuracy) of disk space for files :
_ WF disk file :    202.209 Mbytes ; DEN or POT disk file :      1.174 Mbytes.
================================================================================
 
--------------------------------------------------------------------------------
------------- Echo of variables that govern the present computation ------------
--------------------------------------------------------------------------------
-
- outvars: echo of selected default values                                      
-   iomode0 =  0 , fftalg0 =512 , wfoptalg0 = 10
-
- outvars: echo of global parameters not present in the input file              
-  max_nthreads =    0
-
 -outvars: echo values of preprocessed input variables --------
-          iomode           1
            acell      1.0000000000E+00  1.0000000000E+00  1.0000000000E+00 Bohr
              amu      1.51965000E+02  8.76200000E+01  6.94100000E+00
                       2.69815390E+01  1.40067400E+01  1.59994000E+01
           bandpp          68
          chkprim           0
      chksymbreak           0
     densfor_pred           6
           diemac      5.00000000E+00
             ecut      1.50000000E+01 Hartree
-          fftalg         401
           irdden           1
              ixc     -101130
            jpawu      2.57245278E-02  0.00000000E+00  0.00000000E+00  0.00000000E+00  0.00000000E+00  0.00000000E+00 Hartree
              kpt      2.50000000E-01  2.50000000E-01  2.50000000E-01
                      -2.50000000E-01  2.50000000E-01  2.50000000E-01
         kptrlatt        2    0    0      0    2    0      0    0    2
          kptrlen      3.02779499E+01
            lpawu           3      -1      -1      -1      -1      -1
P           mkmem           1
            natom          72
            nband         204     204     204     204
            ngfft          54      60      90
          ngfftdg          80      80     120
             nkpt           2
-           npfft          10
-        np_spkpt           4
           nspden           2
           nsppol           2
            nstep         100
             nsym           4
           ntypat           6
              occ      1.000000  1.000000  1.000000  1.000000  1.000000  1.000000
                       1.000000  1.000000  1.000000  1.000000  1.000000  1.000000
                       1.000000  1.000000  1.000000  1.000000  1.000000  1.000000
                       1.000000  1.000000  1.000000  1.000000  1.000000  1.000000
                       1.000000  1.000000  1.000000  1.000000  1.000000  1.000000
                       1.000000  1.000000  1.000000  1.000000  1.000000  1.000000
                       1.000000  1.000000  1.000000  1.000000  1.000000  1.000000
                       1.000000  1.000000  1.000000  1.000000  1.000000  1.000000
                       1.000000  1.000000  1.000000  1.000000  1.000000  1.000000
                       1.000000  1.000000  1.000000  1.000000  1.000000  1.000000
                       1.000000  1.000000  1.000000  1.000000  1.000000  1.000000
                       1.000000  1.000000  1.000000  1.000000  1.000000  1.000000
                       1.000000  1.000000  1.000000  1.000000  1.000000  1.000000
                       1.000000  1.000000  1.000000  1.000000  1.000000  1.000000
                       1.000000  1.000000  1.000000  1.000000  1.000000  1.000000
                       1.000000  1.000000  1.000000  1.000000  1.000000  1.000000
                       1.000000  1.000000  1.000000  1.000000  1.000000  1.000000
                       1.000000  1.000000  1.000000  1.000000  1.000000  1.000000
                       1.000000  1.000000  1.000000  1.000000  1.000000  1.000000
                       1.000000  1.000000  1.000000  1.000000  1.000000  1.000000
                       1.000000  1.000000  1.000000  1.000000  1.000000  1.000000
                       1.000000  1.000000  1.000000  1.000000  1.000000  1.000000
                       1.000000  1.000000  1.000000  1.000000  1.000000  1.000000
                       1.000000  1.000000  1.000000  1.000000  1.000000  1.000000
                       1.000000  1.000000  1.000000  1.000000  1.000000  1.000000
                       1.000000  1.000000  1.000000  1.000000  1.000000  1.000000
                       1.000000  1.000000  1.000000  1.000000  1.000000  1.000000
                       1.000000  1.000000  1.000000  1.000000  1.000000  1.000000
                       1.000000  1.000000  1.000000  1.000000  1.000000  1.000000
                       1.000000  1.000000  1.000000  1.000000  1.000000  1.000000
                       1.000000  1.000000  1.000000  0.000000  0.000000  0.000000
                       0.000000  0.000000  0.000000  0.000000  0.000000  0.000000
                       0.000000  0.000000  0.000000  0.000000  0.000000  0.000000
                       0.000000  0.000000  0.000000  0.000000  0.000000  0.000000
                       1.000000  1.000000  1.000000  1.000000  1.000000  1.000000
                       1.000000  1.000000  1.000000  1.000000  1.000000  1.000000
                       1.000000  1.000000  1.000000  1.000000  1.000000  1.000000
                       1.000000  1.000000  1.000000  1.000000  1.000000  1.000000
                       1.000000  1.000000  1.000000  1.000000  1.000000  1.000000
                       1.000000  1.000000  1.000000  1.000000  1.000000  1.000000
                       1.000000  1.000000  1.000000  1.000000  1.000000  1.000000
                       1.000000  1.000000  1.000000  1.000000  1.000000  1.000000
                       1.000000  1.000000  1.000000  1.000000  1.000000  1.000000
                       1.000000  1.000000  1.000000  1.000000  1.000000  1.000000
                       1.000000  1.000000  1.000000  1.000000  1.000000  1.000000
                       1.000000  1.000000  1.000000  1.000000  1.000000  1.000000
                       1.000000  1.000000  1.000000  1.000000  1.000000  1.000000
                       1.000000  1.000000  1.000000  1.000000  1.000000  1.000000
                       1.000000  1.000000  1.000000  1.000000  1.000000  1.000000
                       1.000000  1.000000  1.000000  1.000000  1.000000  1.000000
                       1.000000  1.000000  1.000000  1.000000  1.000000  1.000000
                       1.000000  1.000000  1.000000  1.000000  1.000000  1.000000
                       1.000000  1.000000  1.000000  1.000000  1.000000  1.000000
                       1.000000  1.000000  1.000000  1.000000  1.000000  1.000000
                       1.000000  1.000000  1.000000  1.000000  1.000000  1.000000
                       1.000000  1.000000  1.000000  1.000000  1.000000  1.000000
                       1.000000  1.000000  1.000000  1.000000  1.000000  1.000000
                       1.000000  1.000000  1.000000  1.000000  1.000000  1.000000
                       1.000000  1.000000  1.000000  1.000000  1.000000  1.000000
                       1.000000  1.000000  1.000000  1.000000  1.000000  1.000000
                       1.000000  1.000000  1.000000  1.000000  1.000000  1.000000
                       1.000000  1.000000  1.000000  1.000000  1.000000  1.000000
                       1.000000  1.000000  1.000000  1.000000  1.000000  1.000000
                       1.000000  1.000000  1.000000  1.000000  1.000000  1.000000
                       1.000000  1.000000  1.000000  0.000000  0.000000  0.000000
                       0.000000  0.000000  0.000000  0.000000  0.000000  0.000000
                       0.000000  0.000000  0.000000  0.000000  0.000000  0.000000
                       0.000000  0.000000  0.000000  0.000000  0.000000  0.000000
                       1.000000  1.000000  1.000000  1.000000  1.000000  1.000000
                       1.000000  1.000000  1.000000  1.000000  1.000000  1.000000
                       1.000000  1.000000  1.000000  1.000000  1.000000  1.000000
                       1.000000  1.000000  1.000000  1.000000  1.000000  1.000000
                       1.000000  1.000000  1.000000  1.000000  1.000000  1.000000
                       1.000000  1.000000  1.000000  1.000000  1.000000  1.000000
                       1.000000  1.000000  1.000000  1.000000  1.000000  1.000000
                       1.000000  1.000000  1.000000  1.000000  1.000000  1.000000
                       1.000000  1.000000  1.000000  1.000000  1.000000  1.000000
                       1.000000  1.000000  1.000000  1.000000  1.000000  1.000000
                       1.000000  1.000000  1.000000  1.000000  1.000000  1.000000
                       1.000000  1.000000  1.000000  1.000000  1.000000  1.000000
                       1.000000  1.000000  1.000000  1.000000  1.000000  1.000000
                       1.000000  1.000000  1.000000  1.000000  1.000000  1.000000
                       1.000000  1.000000  1.000000  1.000000  1.000000  1.000000
                       1.000000  1.000000  1.000000  1.000000  1.000000  1.000000
                       1.000000  1.000000  1.000000  1.000000  1.000000  1.000000
                       1.000000  1.000000  1.000000  1.000000  1.000000  1.000000
                       1.000000  1.000000  1.000000  1.000000  1.000000  1.000000
                       1.000000  1.000000  1.000000  1.000000  1.000000  1.000000
                       1.000000  1.000000  1.000000  1.000000  1.000000  1.000000
                       1.000000  1.000000  1.000000  1.000000  1.000000  1.000000
                       1.000000  1.000000  1.000000  1.000000  1.000000  1.000000
                       1.000000  1.000000  1.000000  1.000000  1.000000  1.000000
                       1.000000  1.000000  1.000000  1.000000  1.000000  1.000000
                       1.000000  1.000000  1.000000  1.000000  1.000000  1.000000
                       1.000000  1.000000  1.000000  1.000000  1.000000  1.000000
                       1.000000  1.000000  1.000000  1.000000  1.000000  1.000000
                       1.000000  1.000000  1.000000  1.000000  1.000000  1.000000
                       1.000000  1.000000  0.000000  0.000000  0.000000  0.000000
                       0.000000  0.000000  0.000000  0.000000  0.000000  0.000000
                       0.000000  0.000000  0.000000  0.000000  0.000000  0.000000
                       0.000000  0.000000  0.000000  0.000000  0.000000  0.000000
                       0.000000  0.000000  0.000000  0.000000  0.000000  0.000000
                       1.000000  1.000000  1.000000  1.000000  1.000000  1.000000
                       1.000000  1.000000  1.000000  1.000000  1.000000  1.000000
                       1.000000  1.000000  1.000000  1.000000  1.000000  1.000000
                       1.000000  1.000000  1.000000  1.000000  1.000000  1.000000
                       1.000000  1.000000  1.000000  1.000000  1.000000  1.000000
                       1.000000  1.000000  1.000000  1.000000  1.000000  1.000000
                       1.000000  1.000000  1.000000  1.000000  1.000000  1.000000
                       1.000000  1.000000  1.000000  1.000000  1.000000  1.000000
                       1.000000  1.000000  1.000000  1.000000  1.000000  1.000000
                       1.000000  1.000000  1.000000  1.000000  1.000000  1.000000
                       1.000000  1.000000  1.000000  1.000000  1.000000  1.000000
                       1.000000  1.000000  1.000000  1.000000  1.000000  1.000000
                       1.000000  1.000000  1.000000  1.000000  1.000000  1.000000
                       1.000000  1.000000  1.000000  1.000000  1.000000  1.000000
                       1.000000  1.000000  1.000000  1.000000  1.000000  1.000000
                       1.000000  1.000000  1.000000  1.000000  1.000000  1.000000
                       1.000000  1.000000  1.000000  1.000000  1.000000  1.000000
                       1.000000  1.000000  1.000000  1.000000  1.000000  1.000000
                       1.000000  1.000000  1.000000  1.000000  1.000000  1.000000
                       1.000000  1.000000  1.000000  1.000000  1.000000  1.000000
                       1.000000  1.000000  1.000000  1.000000  1.000000  1.000000
                       1.000000  1.000000  1.000000  1.000000  1.000000  1.000000
                       1.000000  1.000000  1.000000  1.000000  1.000000  1.000000
                       1.000000  1.000000  1.000000  1.000000  1.000000  1.000000
                       1.000000  1.000000  1.000000  1.000000  1.000000  1.000000
                       1.000000  1.000000  1.000000  1.000000  1.000000  1.000000
                       1.000000  1.000000  1.000000  1.000000  1.000000  1.000000
                       1.000000  1.000000  1.000000  1.000000  1.000000  1.000000
                       1.000000  1.000000  1.000000  1.000000  1.000000  1.000000
                       1.000000  1.000000  0.000000  0.000000  0.000000  0.000000
                       0.000000  0.000000  0.000000  0.000000  0.000000  0.000000
                       0.000000  0.000000  0.000000  0.000000  0.000000  0.000000
                       0.000000  0.000000  0.000000  0.000000  0.000000  0.000000
                       0.000000  0.000000  0.000000  0.000000  0.000000  0.000000
           occopt           2
        paral_kgb           1
        pawecutdg      3.00000000E+01 Hartree
         pawmixdg           1
            prtwf          -1
            rprim      1.5139044928E+01  3.8157104200E-02  0.0000000000E+00
                       3.8157104200E-02  1.5138926862E+01  0.0000000000E+00
                       0.0000000000E+00  0.0000000000E+00  2.4286034968E+01
           shiftk      5.00000000E-01  5.00000000E-01  5.00000000E-01
          spgroup          10
           spinat      0.0000000000E+00  0.0000000000E+00  7.0000000000E+00
                       0.0000000000E+00  0.0000000000E+00  0.0000000000E+00
                       0.0000000000E+00  0.0000000000E+00  0.0000000000E+00
                       0.0000000000E+00  0.0000000000E+00  0.0000000000E+00
                       0.0000000000E+00  0.0000000000E+00  0.0000000000E+00
                       0.0000000000E+00  0.0000000000E+00  0.0000000000E+00
                       0.0000000000E+00  0.0000000000E+00  0.0000000000E+00
                       0.0000000000E+00  0.0000000000E+00  0.0000000000E+00
                       0.0000000000E+00  0.0000000000E+00  0.0000000000E+00
                       0.0000000000E+00  0.0000000000E+00  0.0000000000E+00
                       0.0000000000E+00  0.0000000000E+00  0.0000000000E+00
                       0.0000000000E+00  0.0000000000E+00  0.0000000000E+00
                       0.0000000000E+00  0.0000000000E+00  0.0000000000E+00
                       0.0000000000E+00  0.0000000000E+00  0.0000000000E+00
                       0.0000000000E+00  0.0000000000E+00  0.0000000000E+00
                       0.0000000000E+00  0.0000000000E+00  0.0000000000E+00
                       0.0000000000E+00  0.0000000000E+00  0.0000000000E+00
                       0.0000000000E+00  0.0000000000E+00  0.0000000000E+00
                       0.0000000000E+00  0.0000000000E+00  0.0000000000E+00
                       0.0000000000E+00  0.0000000000E+00  0.0000000000E+00
                       0.0000000000E+00  0.0000000000E+00  0.0000000000E+00
                       0.0000000000E+00  0.0000000000E+00  0.0000000000E+00
                       0.0000000000E+00  0.0000000000E+00  0.0000000000E+00
                       0.0000000000E+00  0.0000000000E+00  0.0000000000E+00
                       0.0000000000E+00  0.0000000000E+00  0.0000000000E+00
                       0.0000000000E+00  0.0000000000E+00  0.0000000000E+00
                       0.0000000000E+00  0.0000000000E+00  0.0000000000E+00
                       0.0000000000E+00  0.0000000000E+00  0.0000000000E+00
                       0.0000000000E+00  0.0000000000E+00  0.0000000000E+00
                       0.0000000000E+00  0.0000000000E+00  0.0000000000E+00
                       0.0000000000E+00  0.0000000000E+00  0.0000000000E+00
                       0.0000000000E+00  0.0000000000E+00  0.0000000000E+00
                       0.0000000000E+00  0.0000000000E+00  0.0000000000E+00
                       0.0000000000E+00  0.0000000000E+00  0.0000000000E+00
                       0.0000000000E+00  0.0000000000E+00  0.0000000000E+00
                       0.0000000000E+00  0.0000000000E+00  0.0000000000E+00
                       0.0000000000E+00  0.0000000000E+00  0.0000000000E+00
                       0.0000000000E+00  0.0000000000E+00  0.0000000000E+00
                       0.0000000000E+00  0.0000000000E+00  0.0000000000E+00
                       0.0000000000E+00  0.0000000000E+00  0.0000000000E+00
                       0.0000000000E+00  0.0000000000E+00  0.0000000000E+00
                       0.0000000000E+00  0.0000000000E+00  0.0000000000E+00
                       0.0000000000E+00  0.0000000000E+00  0.0000000000E+00
                       0.0000000000E+00  0.0000000000E+00  0.0000000000E+00
                       0.0000000000E+00  0.0000000000E+00  0.0000000000E+00
                       0.0000000000E+00  0.0000000000E+00  0.0000000000E+00
                       0.0000000000E+00  0.0000000000E+00  0.0000000000E+00
                       0.0000000000E+00  0.0000000000E+00  0.0000000000E+00
                       0.0000000000E+00  0.0000000000E+00  0.0000000000E+00
                       0.0000000000E+00  0.0000000000E+00  0.0000000000E+00
                       0.0000000000E+00  0.0000000000E+00  0.0000000000E+00
                       0.0000000000E+00  0.0000000000E+00  0.0000000000E+00
                       0.0000000000E+00  0.0000000000E+00  0.0000000000E+00
                       0.0000000000E+00  0.0000000000E+00  0.0000000000E+00
                       0.0000000000E+00  0.0000000000E+00  0.0000000000E+00
                       0.0000000000E+00  0.0000000000E+00  0.0000000000E+00
                       0.0000000000E+00  0.0000000000E+00  0.0000000000E+00
                       0.0000000000E+00  0.0000000000E+00  0.0000000000E+00
                       0.0000000000E+00  0.0000000000E+00  0.0000000000E+00
                       0.0000000000E+00  0.0000000000E+00  0.0000000000E+00
                       0.0000000000E+00  0.0000000000E+00  0.0000000000E+00
                       0.0000000000E+00  0.0000000000E+00  0.0000000000E+00
                       0.0000000000E+00  0.0000000000E+00  0.0000000000E+00
                       0.0000000000E+00  0.0000000000E+00  0.0000000000E+00
                       0.0000000000E+00  0.0000000000E+00  0.0000000000E+00
                       0.0000000000E+00  0.0000000000E+00  0.0000000000E+00
                       0.0000000000E+00  0.0000000000E+00  0.0000000000E+00
                       0.0000000000E+00  0.0000000000E+00  0.0000000000E+00
                       0.0000000000E+00  0.0000000000E+00  0.0000000000E+00
                       0.0000000000E+00  0.0000000000E+00  0.0000000000E+00
                       0.0000000000E+00  0.0000000000E+00  0.0000000000E+00
                       0.0000000000E+00  0.0000000000E+00  0.0000000000E+00
           symrel      1  0  0   0  1  0   0  0  1      -1  0  0   0 -1  0   0  0 -1
                      -1  0  0   0 -1  0   0  0  1       1  0  0   0  1  0   0  0 -1
            tnons      0.0000000  0.0000000  0.0000000    -0.0000000 -0.0000000  0.2500000
                      -0.0000000 -0.0000000  0.0000000     0.0000000  0.0000000  0.2500000
           toldfe      1.00000000E-08 Hartree
            typat      1  2  2  2  2  2  2  2  3  3  3  3  3  3  3  3  3  3  3  3
                       3  3  3  3  4  4  4  4  4  4  4  4  4  4  4  4  4  4  4  4
                       5  5  5  5  5  5  5  5  5  5  5  5  5  5  5  5  6  6  6  6
                       6  6  6  6  6  6  6  6  6  6  6  6
            upawu      2.57245278E-01  0.00000000E+00  0.00000000E+00  0.00000000E+00  0.00000000E+00  0.00000000E+00 Hartree
          usepawu           1
           useylm           1
         wfoptalg         114
              wtk        0.50000    0.50000
           xangst      4.0056187680E+00  1.0095934944E-02  1.6064520240E+00
                       4.0056187680E+00  1.0095934944E-02  4.8210276175E+00
                       4.0056187680E+00  1.0095934944E-02  8.0322601200E+00
                       4.0056187680E+00  1.0095934944E-02  1.1243492623E+01
                       1.0095934944E-02  4.0055875290E+00 -2.0215470794E-04
                       1.0095934944E-02  4.0055875290E+00  3.2131062027E+00
                       1.0095934944E-02  4.0055875290E+00  6.4261967919E+00
                       1.0095934944E-02  4.0055875290E+00  9.6383234482E+00
                       1.0217247860E+00  6.5943499652E+00  1.6064520240E+00
                       1.0225694129E+00  6.5936654374E+00  4.8223198796E+00
                       1.0249806176E+00  6.5950367007E+00  8.0322601200E+00
                       1.0225694129E+00  6.5936654374E+00  1.1242200360E+01
                       7.0097046198E+00  1.4370169627E+00  1.6064520240E+00
                       7.0088599929E+00  1.4377014906E+00  4.8223198796E+00
                       7.0064487882E+00  1.4363302272E+00  8.0322601200E+00
                       7.0088599929E+00  1.4377014906E+00  1.1242200360E+01
                       1.4194855438E+00  1.0154564806E+00 -4.1803196117E-04
                       1.4194855438E+00  1.0154564806E+00  3.2133220800E+00
                       1.4218351583E+00  1.0161913324E+00  6.4262603405E+00
                       1.4218351583E+00  1.0161913324E+00  9.6382598995E+00
                       6.6119438620E+00  7.0159104474E+00 -4.1803196117E-04
                       6.6119438620E+00  7.0159104474E+00  3.2133220800E+00
                       6.6095942475E+00  7.0151755955E+00  6.4262603405E+00
                       6.6095942475E+00  7.0151755955E+00  9.6382598995E+00
                       2.8404285276E+00  5.4899011717E+00 -2.8390236708E-05
                       2.8404285276E+00  5.4899011717E+00  3.2129324382E+00
                       2.8424842443E+00  5.4902389612E+00  6.4261158794E+00
                       2.8424842443E+00  5.4902389612E+00  9.6384043607E+00
                       5.1910008782E+00  2.5414657563E+00 -2.8390236708E-05
                       5.1910008782E+00  2.5414657563E+00  3.2129324382E+00
                       5.1889451615E+00  2.5411279667E+00  6.4261158794E+00
                       5.1889451615E+00  2.5411279667E+00  9.6384043607E+00
                       2.5394981982E+00  2.8362834068E+00  1.6064520240E+00
                       2.5384831051E+00  2.8384633397E+00  4.8211772694E+00
                       2.5383432678E+00  2.8379800470E+00  8.0322601200E+00
                       2.5384831051E+00  2.8384633397E+00  1.1243342971E+01
                       5.4919312077E+00  5.1950835211E+00  1.6064520240E+00
                       5.4929463008E+00  5.1929035882E+00  4.8211772694E+00
                       5.4930861380E+00  5.1933868809E+00  8.0322601200E+00
                       5.4929463008E+00  5.1929035882E+00  1.1243342971E+01
                       4.6978004701E+00  5.8583626769E+00 -1.9141503410E-03
                       4.6978004701E+00  5.8583626769E+00  3.2148181983E+00
                       4.6990215655E+00  5.8605170226E+00  6.4265129545E+00
                       4.6990215655E+00  5.8605170226E+00  9.6380072856E+00
                       3.3336289358E+00  2.1730042511E+00 -1.9141503410E-03
                       3.3336289358E+00  2.1730042511E+00  3.2148181983E+00
                       3.3324078403E+00  2.1708499053E+00  6.4265129545E+00
                       3.3324078403E+00  2.1708499053E+00  9.6380072856E+00
                       2.1752377891E+00  4.6934176008E+00  1.6064520240E+00
                       2.1755122445E+00  4.6947262127E+00  4.8203563159E+00
                       2.1756741970E+00  4.6946858403E+00  8.0322601200E+00
                       2.1755122445E+00  4.6947262127E+00  1.1244163924E+01
                       5.8561916167E+00  3.3379493271E+00  1.6064520240E+00
                       5.8559171614E+00  3.3366407152E+00  4.8203563159E+00
                       5.8557552088E+00  3.3366810876E+00  8.0322601200E+00
                       5.8559171614E+00  3.3366407152E+00  1.1244163924E+01
                       2.0565788173E+00  7.1572216329E+00 -4.0667076381E-03
                       2.0565788173E+00  7.1572216329E+00  3.2169707556E+00
                       2.0666318964E+00  7.1605407112E+00  6.4265354062E+00
                       2.0666318964E+00  7.1605407112E+00  9.6379848338E+00
                       5.9748505885E+00  8.7414529499E-01 -4.0667076381E-03
                       5.9748505885E+00  8.7414529499E-01  3.2169707556E+00
                       5.9647975095E+00  8.7082621672E-01  6.4265354062E+00
                       5.9647975095E+00  8.7082621672E-01  9.6379848338E+00
                       8.6824821949E-01  2.0600565396E+00  1.6064520240E+00
                       8.6799065423E-01  2.0605749456E+00  4.8202262909E+00
                       8.6722666715E-01  2.0601317617E+00  8.0322601200E+00
                       8.6799065423E-01  2.0605749456E+00  1.1244293949E+01
                       7.1631811863E+00  5.9713103883E+00  1.6064520240E+00
                       7.1634387516E+00  5.9707919823E+00  4.8202262909E+00
                       7.1642027387E+00  5.9712351662E+00  8.0322601200E+00
                       7.1634387516E+00  5.9707919823E+00  1.1244293949E+01
            xcart      7.5695224642E+00  1.9078552100E-02  3.0357543710E+00
                       7.5695224642E+00  1.9078552100E-02  9.1104218761E+00
                       7.5695224642E+00  1.9078552100E-02  1.5178771855E+01
                       7.5695224642E+00  1.9078552100E-02  2.1247121834E+01
                       1.9078552100E-02  7.5694634311E+00 -3.8201703448E-04
                       1.9078552100E-02  7.5694634311E+00  6.0718907590E+00
                       1.9078552100E-02  7.5694634311E+00  1.2143752013E+01
                       1.9078552100E-02  7.5694634311E+00  1.8213791697E+01
                       1.9307800287E+00  1.2461515459E+01  3.0357543710E+00
                       1.9323761422E+00  1.2460221888E+01  9.1128638976E+00
                       1.9369326589E+00  1.2462813201E+01  1.5178771855E+01
                       1.9323761422E+00  1.2460221888E+01  2.1244679812E+01
                       1.3246422004E+01  2.7155685078E+00  3.0357543710E+00
                       1.3244825890E+01  2.7168620780E+00  9.1128638976E+00
                       1.3240269374E+01  2.7142707658E+00  1.5178771855E+01
                       1.3244825890E+01  2.7168620780E+00  2.1244679812E+01
                       2.6824389274E+00  1.9189346481E+00 -7.8996592140E-04
                       2.6824389274E+00  1.9189346481E+00  6.0722987079E+00
                       2.6868790553E+00  1.9203233169E+00  1.2143872102E+01
                       2.6868790553E+00  1.9203233169E+00  1.8213671608E+01
                       1.2494763105E+01  1.3258149318E+01 -7.8996592140E-04
                       1.2494763105E+01  1.3258149318E+01  6.0722987079E+00
                       1.2490322977E+01  1.3256760650E+01  1.2143872102E+01
                       1.2490322977E+01  1.3256760650E+01  1.8213671608E+01
                       5.3676320171E+00  1.0374409711E+01 -5.3649772227E-05
                       5.3676320171E+00  1.0374409711E+01  6.0715623917E+00
                       5.3715167588E+00  1.0375048041E+01  1.2143599110E+01
                       5.3715167588E+00  1.0375048041E+01  1.8213944600E+01
                       9.8095700155E+00  4.8026742554E+00 -5.3649772227E-05
                       9.8095700155E+00  4.8026742554E+00  6.0715623917E+00
                       9.8056852738E+00  4.8020359256E+00  1.2143599110E+01
                       9.8056852738E+00  4.8020359256E+00  1.8213944600E+01
                       4.7989561095E+00  5.3597988741E+00  3.0357543710E+00
                       4.7970378615E+00  5.3639183503E+00  9.1107046773E+00
                       4.7967736074E+00  5.3630050595E+00  1.5178771855E+01
                       4.7970378615E+00  5.3639183503E+00  2.1246839033E+01
                       1.0378245923E+01  9.8172850924E+00  3.0357543710E+00
                       1.0380164171E+01  9.8131656162E+00  9.1107046773E+00
                       1.0380428425E+01  9.8140789070E+00  1.5178771855E+01
                       1.0380164171E+01  9.8131656162E+00  2.1246839033E+01
                       8.8775563153E+00  1.1070701046E+01 -3.6172199217E-03
                       8.8775563153E+00  1.1070701046E+01  6.0751259619E+00
                       8.8798638514E+00  1.1074772170E+01  1.2144349473E+01
                       8.8798638514E+00  1.1074772170E+01  1.8213194236E+01
                       6.2996457173E+00  4.1063829201E+00 -3.6172199217E-03
                       6.2996457173E+00  4.1063829201E+00  6.0751259619E+00
                       6.2973381812E+00  4.1023117967E+00  1.2144349473E+01
                       6.2973381812E+00  4.1023117967E+00  1.8213194236E+01
                       4.1106036953E+00  8.8692738928E+00  3.0357543710E+00
                       4.1111223408E+00  8.8717468110E+00  9.1091532999E+00
                       4.1114283867E+00  8.8716705181E+00  1.5178771855E+01
                       4.1111223408E+00  8.8717468110E+00  2.1248390410E+01
                       1.1066598337E+01  6.3078100737E+00  3.0357543710E+00
                       1.1066079692E+01  6.3053371555E+00  9.1091532999E+00
                       1.1065773646E+01  6.3054134484E+00  1.5178771855E+01
                       1.1066079692E+01  6.3053371555E+00  2.1248390410E+01
                       3.8863707354E+00  1.3525188759E+01 -7.6849636985E-03
                       3.8863707354E+00  1.3525188759E+01  6.0791937057E+00
                       3.9053683016E+00  1.3531460908E+01  1.2144391901E+01
                       3.9053683016E+00  1.3531460908E+01  1.8213151809E+01
                       1.1290831297E+01  1.6518952079E+00 -7.6849636985E-03
                       1.1290831297E+01  1.6518952079E+00  6.0791937057E+00
                       1.1271833731E+01  1.6456230589E+00  1.2144391901E+01
                       1.1271833731E+01  1.6456230589E+00  1.8213151809E+01
                       1.6407513502E+00  3.8929426781E+00  3.0357543710E+00
                       1.6402646224E+00  3.8939223235E+00  9.1089075884E+00
                       1.6388208961E+00  3.8930848272E+00  1.5178771855E+01
                       1.6402646224E+00  3.8939223235E+00  2.1248636121E+01
                       1.3536450682E+01  1.1284141288E+01  3.0357543710E+00
                       1.3536937410E+01  1.1283161643E+01  9.1089075884E+00
                       1.3538381137E+01  1.1283999139E+01  1.5178771855E+01
                       1.3536937410E+01  1.1283161643E+01  2.1248636121E+01
             xred      5.0000000000E-01 -2.1684043450E-19  1.2500000000E-01
                       5.0000000000E-01 -2.1684043450E-19  3.7513006500E-01
                       5.0000000000E-01 -2.1684043450E-19  6.2500000000E-01
                       5.0000000000E-01 -2.1684043450E-19  8.7486993500E-01
                      -5.5511151231E-17  5.0000000000E-01 -1.5729905478E-05
                      -5.5511151231E-17  5.0000000000E-01  2.5001572991E-01
                      -5.5511151231E-17  5.0000000000E-01  5.0003024490E-01
                      -5.5511151231E-17  5.0000000000E-01  7.4996975510E-01
                       1.2546255830E-01  8.2282768680E-01  1.2500000000E-01
                       1.2556820460E-01  8.2274197390E-01  3.7523061750E-01
                       1.2586875290E-01  8.2291238520E-01  6.2500000000E-01
                       1.2556820460E-01  8.2274197390E-01  8.7476938250E-01
                       8.7453744170E-01  1.7717231320E-01  1.2500000000E-01
                       8.7443179540E-01  1.7725802610E-01  3.7523061750E-01
                       8.7413124710E-01  1.7708761480E-01  6.2500000000E-01
                       8.7443179540E-01  1.7725802610E-01  8.7476938250E-01
                       1.7686844490E-01  1.2630920790E-01 -3.2527579016E-05
                       1.7686844490E-01  1.2630920790E-01  2.5003252758E-01
                       1.7716150540E-01  1.2640019760E-01  5.0003518970E-01
                       1.7716150540E-01  1.2640019760E-01  7.4996481030E-01
                       8.2313155510E-01  8.7369079210E-01 -3.2527579016E-05
                       8.2313155510E-01  8.7369079210E-01  2.5003252758E-01
                       8.2283849460E-01  8.7359980240E-01  5.0003518970E-01
                       8.2283849460E-01  8.7359980240E-01  7.4996481030E-01
                       3.5283055570E-01  6.8439109410E-01 -2.2090790982E-06
                       3.5283055570E-01  6.8439109410E-01  2.5000220908E-01
                       3.5308705520E-01  6.8443261240E-01  5.0002394900E-01
                       3.5308705520E-01  6.8443261240E-01  7.4997605100E-01
                       6.4716944430E-01  3.1560890590E-01 -2.2090790982E-06
                       6.4716944430E-01  3.1560890590E-01  2.5000220908E-01
                       6.4691294480E-01  3.1556738760E-01  5.0002394900E-01
                       6.4691294480E-01  3.1556738760E-01  7.4997605100E-01
                       3.1610166680E-01  3.5324414990E-01  1.2500000000E-01
                       3.1597427150E-01  3.5351658250E-01  3.7514170960E-01
                       3.1595696830E-01  3.5345629880E-01  6.2500000000E-01
                       3.1597427150E-01  3.5351658250E-01  8.7485829040E-01
                       6.8389833320E-01  6.4675585010E-01  1.2500000000E-01
                       6.8402572850E-01  6.4648341750E-01  3.7514170960E-01
                       6.8404303170E-01  6.4654370120E-01  6.2500000000E-01
                       6.8402572850E-01  6.4648341750E-01  8.7485829040E-01
                       5.8456192480E-01  7.2980046450E-01 -1.4894238300E-04
                       5.8456192480E-01  7.2980046450E-01  2.5014894238E-01
                       5.8471367080E-01  7.3006899960E-01  5.0005484590E-01
                       5.8471367080E-01  7.3006899960E-01  7.4994515410E-01
                       4.1543807520E-01  2.7019953550E-01 -1.4894238300E-04
                       4.1543807520E-01  2.7019953550E-01  2.5014894238E-01
                       4.1528632920E-01  2.6993100040E-01  5.0005484590E-01
                       4.1528632920E-01  2.6993100040E-01  7.4994515410E-01
                       2.7004840860E-01  5.8517817730E-01  1.2500000000E-01
                       2.7008225590E-01  5.8534144030E-01  3.7507783020E-01
                       2.7010248440E-01  5.8533634980E-01  6.2500000000E-01
                       2.7008225590E-01  5.8534144030E-01  8.7492216980E-01
                       7.2995159140E-01  4.1482182270E-01  1.2500000000E-01
                       7.2991774410E-01  4.1465855970E-01  3.7507783020E-01
                       7.2989751560E-01  4.1466365020E-01  6.2500000000E-01
                       7.2991774410E-01  4.1465855970E-01  8.7492216980E-01
                       2.5446159180E-01  8.9276336190E-01 -3.1643550331E-04
                       2.5446159180E-01  8.9276336190E-01  2.5031643550E-01
                       2.5571542770E-01  8.9317450770E-01  5.0005659290E-01
                       2.5571542770E-01  8.9317450770E-01  7.4994340710E-01
                       7.4553840820E-01  1.0723663810E-01 -3.1643550331E-04
                       7.4553840820E-01  1.0723663810E-01  2.5031643550E-01
                       7.4428457230E-01  1.0682549230E-01  5.0005659290E-01
                       7.4428457230E-01  1.0682549230E-01  7.4994340710E-01
                       1.0773134640E-01  2.5687632930E-01  1.2500000000E-01
                       1.0769903260E-01  2.5694112110E-01  3.7506771280E-01
                       1.0760380700E-01  2.5688604040E-01  6.2500000000E-01
                       1.0769903260E-01  2.5694112110E-01  8.7493228720E-01
                       8.9226865360E-01  7.4312367070E-01  1.2500000000E-01
                       8.9230096740E-01  7.4305887890E-01  3.7506771280E-01
                       8.9239619300E-01  7.4311395960E-01  6.2500000000E-01
                       8.9230096740E-01  7.4305887890E-01  8.7493228720E-01
            znucl       63.00000   38.00000    3.00000   13.00000    7.00000    8.00000
 
================================================================================
 
 chkinp: Checking input parameters for consistency.
 
================================================================================
== DATASET  1 ==================================================================
-   mpi_nproc: 40, omp_nthreads: -1 (-1 if OMP is not activated)
 

--- !DatasetInfo
iteration_state: {dtset: 1, }
dimensions: {natom: 72, nkpt: 2, mband: 204, nsppol: 2, nspinor: 1, nspden: 2, mpw: 1624, }
cutoff_energies: {ecut:  15.0, pawecutdg:  30.0, }
electrons: {nelect:   3.59000000E+02, charge:   0.00000000E+00, occopt:   2.00000000E+00, tsmear:   1.00000000E-02, }
meta: {optdriver: 0, ionmov: 0, optcell: 0, iscf: 17, paral_kgb: 1, }
...

 Real(R)+Recip(G) space primitive vectors, cartesian coordinates (Bohr,Bohr^-1):
 R(1)= 15.1390449  0.0381571  0.0000000  G(1)=  0.0660548 -0.0001665  0.0000000
 R(2)=  0.0381571 15.1389269  0.0000000  G(2)= -0.0001665  0.0660553  0.0000000
 R(3)=  0.0000000  0.0000000 24.2860350  G(3)=  0.0000000  0.0000000  0.0411759
 Unit cell volume ucvol=  5.5660541E+03 bohr^3
 Angles (23,13,12)=  9.00000000E+01  9.00000000E+01  8.97111780E+01 degrees
 
 Coarse grid specifications (used for wave-functions):
 
 getcut: wavevector=  0.0000  0.0000  0.0000  ngfft=  54  60  90
         ecut(hartree)=     15.000   => boxcut(ratio)=   2.04592
 
 Fine grid specifications (used for densities):
 
 getcut: wavevector=  0.0000  0.0000  0.0000  ngfft=  80  80 120
         ecut(hartree)=     30.000   => boxcut(ratio)=   2.00401
 
--- Pseudopotential description ------------------------------------------------
- pspini: atom type   1  psp file is /home/ucl/modl/jbouq/psps_paw_pbe/Eu.GGA_PBE-JTH.xml
- pspatm: opening atomic psp file    /home/ucl/modl/jbouq/psps_paw_pbe/Eu.GGA_PBE-JTH.xml
- pspatm : Reading pseudopotential header in XML form from /home/ucl/modl/jbouq/psps_paw_pbe/Eu.GGA_PBE-JTH.xml
 Pseudopotential format is: paw10
 basis_size (lnmax)=  8 (lmn_size= 32), orbitals=   0   0   1   1   2   2   3   3
 Spheres core radius: rc_sph= 2.52170005
 1 radial meshes are used:
  - mesh 1: r(i)=AA*[exp(BB*(i-1))-1], size=1500 , AA= 0.14034E-03 BB= 0.88415E-02
 Shapefunction is SIN type: shapef(r)=[sin(pi*r/rshp)/(pi*r/rshp)]**2
 Radius for shape functions =  2.30830346
 mmax= 1500
 Radial grid used for partial waves is grid 1
 Radial grid used for projectors is grid 1
 Radial grid used for (t)core density is grid 1
 Radial grid used for Vloc is grid 1
 Radial grid used for pseudo valence density is grid 1
 Mesh size for Vloc has been set to 1343 to avoid numerical noise.
 Compensation charge density is not taken into account in XC energy/potential
 pspatm: atomic psp has been read  and splines computed
 
- pspini: atom type   2  psp file is /home/ucl/modl/jbouq/psps_paw_pbe/Sr.GGA_PBE-JTH.xml
- pspatm: opening atomic psp file    /home/ucl/modl/jbouq/psps_paw_pbe/Sr.GGA_PBE-JTH.xml
- pspatm : Reading pseudopotential header in XML form from /home/ucl/modl/jbouq/psps_paw_pbe/Sr.GGA_PBE-JTH.xml
 Pseudopotential format is: paw10
 basis_size (lnmax)=  6 (lmn_size= 18), orbitals=   0   0   1   1   2   2
 Spheres core radius: rc_sph= 2.20669967
 1 radial meshes are used:
  - mesh 1: r(i)=AA*[exp(BB*(i-1))-1], size=1500 , AA= 0.22443E-03 BB= 0.85283E-02
 Shapefunction is SIN type: shapef(r)=[sin(pi*r/rshp)/(pi*r/rshp)]**2
 Radius for shape functions =  1.81361893
 mmax= 1500
 Radial grid used for partial waves is grid 1
 Radial grid used for projectors is grid 1
 Radial grid used for (t)core density is grid 1
 Radial grid used for Vloc is grid 1
 Radial grid used for pseudo valence density is grid 1
 Mesh size for Vloc has been set to 1337 to avoid numerical noise.
 Compensation charge density is not taken into account in XC energy/potential
 pspatm: atomic psp has been read  and splines computed
 
- pspini: atom type   3  psp file is /home/ucl/modl/jbouq/psps_paw_pbe/Li.GGA_PBE-JTH.xml
- pspatm: opening atomic psp file    /home/ucl/modl/jbouq/psps_paw_pbe/Li.GGA_PBE-JTH.xml
- pspatm : Reading pseudopotential header in XML form from /home/ucl/modl/jbouq/psps_paw_pbe/Li.GGA_PBE-JTH.xml
 Pseudopotential format is: paw10
 basis_size (lnmax)=  5 (lmn_size=  9), orbitals=   0   0   0   1   1
 Spheres core radius: rc_sph= 1.60264751
 1 radial meshes are used:
  - mesh 1: r(i)=AA*[exp(BB*(i-1))-1], size=2001 , AA= 0.17851E-02 BB= 0.53552E-02
 Shapefunction is BESSEL type: shapef(r,l)=aa(1,l)*jl(q(1,l)*r)+aa(2,l)*jl(q(2,l)*r)
 Radius for shape functions =  1.30023672
 mmax= 2001
 Radial grid used for partial waves is grid 1
 Radial grid used for projectors is grid 1
 Radial grid used for (t)core density is grid 1
 Radial grid used for Vloc is grid 1
 Radial grid used for pseudo valence density is grid 1
 Mesh size for Vloc has been set to 1742 to avoid numerical noise.
 Compensation charge density is not taken into account in XC energy/potential
 pspatm: atomic psp has been read  and splines computed
 
- pspini: atom type   4  psp file is /home/ucl/modl/jbouq/psps_paw_pbe/Al.GGA_PBE-JTH.xml
- pspatm: opening atomic psp file    /home/ucl/modl/jbouq/psps_paw_pbe/Al.GGA_PBE-JTH.xml
- pspatm : Reading pseudopotential header in XML form from /home/ucl/modl/jbouq/psps_paw_pbe/Al.GGA_PBE-JTH.xml
 Pseudopotential format is: paw10
 basis_size (lnmax)=  4 (lmn_size=  8), orbitals=   0   0   1   1
 Spheres core radius: rc_sph= 1.90363307
 1 radial meshes are used:
  - mesh 1: r(i)=AA*[exp(BB*(i-1))-1], size=2001 , AA= 0.46377E-03 BB= 0.60291E-02
 Shapefunction is SIN type: shapef(r)=[sin(pi*r/rshp)/(pi*r/rshp)]**2
 Radius for shape functions =  1.60786206
 mmax= 2001
 Radial grid used for partial waves is grid 1
 Radial grid used for projectors is grid 1
 Radial grid used for (t)core density is grid 1
 Radial grid used for Vloc is grid 1
 Radial grid used for pseudo valence density is grid 1
 Mesh size for Vloc has been set to 1771 to avoid numerical noise.
 Compensation charge density is not taken into account in XC energy/potential
 pspatm: atomic psp has been read  and splines computed
 
- pspini: atom type   5  psp file is /home/ucl/modl/jbouq/psps_paw_pbe/N.GGA_PBE-JTH.xml
- pspatm: opening atomic psp file    /home/ucl/modl/jbouq/psps_paw_pbe/N.GGA_PBE-JTH.xml
- pspatm : Reading pseudopotential header in XML form from /home/ucl/modl/jbouq/psps_paw_pbe/N.GGA_PBE-JTH.xml
 Pseudopotential format is: paw10
 basis_size (lnmax)=  4 (lmn_size=  8), orbitals=   0   0   1   1
 Spheres core radius: rc_sph= 1.20000000
 1 radial meshes are used:
  - mesh 1: r(i)=AA*[exp(BB*(i-1))-1], size= 787 , AA= 0.19344E-02 BB= 0.13541E-01
 Shapefunction is SIN type: shapef(r)=[sin(pi*r/rshp)/(pi*r/rshp)]**2
 Radius for shape functions =  1.00599851
 mmax=  787
 Radial grid used for partial waves is grid 1
 Radial grid used for projectors is grid 1
 Radial grid used for (t)core density is grid 1
 Radial grid used for Vloc is grid 1
 Radial grid used for pseudo valence density is grid 1
 Mesh size for Vloc has been set to  683 to avoid numerical noise.
 Compensation charge density is not taken into account in XC energy/potential
 pspatm: atomic psp has been read  and splines computed
 
- pspini: atom type   6  psp file is /home/ucl/modl/jbouq/psps_paw_pbe/O.GGA_PBE-JTH.xml
- pspatm: opening atomic psp file    /home/ucl/modl/jbouq/psps_paw_pbe/O.GGA_PBE-JTH.xml
- pspatm : Reading pseudopotential header in XML form from /home/ucl/modl/jbouq/psps_paw_pbe/O.GGA_PBE-JTH.xml
 Pseudopotential format is: paw10
 basis_size (lnmax)=  4 (lmn_size=  8), orbitals=   0   0   1   1
 Spheres core radius: rc_sph= 1.41465230
 1 radial meshes are used:
  - mesh 1: r(i)=AA*[exp(BB*(i-1))-1], size=2001 , AA= 0.72565E-03 BB= 0.58052E-02
 Shapefunction is SIN type: shapef(r)=[sin(pi*r/rshp)/(pi*r/rshp)]**2
 Radius for shape functions =  1.20231231
 mmax= 2001
 Radial grid used for partial waves is grid 1
 Radial grid used for projectors is grid 1
 Radial grid used for (t)core density is grid 1
 Radial grid used for Vloc is grid 1
 Radial grid used for pseudo valence density is grid 1
 Mesh size for Vloc has been set to 1762 to avoid numerical noise.
 Compensation charge density is not taken into account in XC energy/potential
 pspatm: atomic psp has been read  and splines computed
 
   1.43215553E+05                                ecore*ucvol(ha*bohr**3)
--------------------------------------------------------------------------------
 
_setup2: Arith. and geom. avg. npw (full set) are    1622.500    1622.499
 
 
 ******************************************
 DFT+U Method used: FLL
 ******************************************
 
================================================================================

--- !BeginCycle
iteration_state: {dtset: 1, }
solver: {iscf: 17, nstep: 100, nline: 4, wfoptalg: 114, }
tolerances: {toldfe: 1.00E-08, }
...
 
     iter   Etot(hartree)      deltaE(h)  residm     nres2
 ETOT  1  -889.55952919326    -8.896E+02 7.180E-04 1.571E+00
 ETOT  2  -889.58807753520    -2.855E-02 6.357E-05 8.812E-01
 ETOT  3  -889.58550084782     2.577E-03 4.489E-05 4.403E-02
 ETOT  4  -889.58564561453    -1.448E-04 2.718E-05 4.359E-03
 ETOT  5  -889.58564301304     2.601E-06 1.430E-05 8.309E-04
 ETOT  6  -889.58564390288    -8.898E-07 1.127E-05 4.279E-05
 ETOT  7  -889.58564392779    -2.492E-08 1.268E-05 1.644E-05
 ETOT  8  -889.58564379097     1.368E-07 9.240E-06 1.293E-06
 ETOT  9  -889.58564376692     2.405E-08 8.139E-06 6.723E-07
 ETOT 10  -889.58564374439     2.253E-08 7.809E-06 2.131E-07
 ETOT 11  -889.58564373548     8.910E-09 7.031E-06 4.812E-08
 ETOT 12  -889.58564373292     2.562E-09 4.460E-06 1.704E-08
 
 At SCF step   12, etot is converged : 
  for the second time, diff in etot=  2.562E-09 < toldfe=  1.000E-08
 
 Cartesian components of stress tensor (hartree/bohr^3)
  sigma(1 1)=  4.37617307E-04  sigma(3 2)=  0.00000000E+00
  sigma(2 2)=  4.37417503E-04  sigma(3 1)=  0.00000000E+00
  sigma(3 3)=  4.54854865E-04  sigma(2 1)=  8.19967294E-06
 

--- !ResultsGS
iteration_state: {dtset: 1, }
comment   : Summary of ground state results
lattice_vectors:
- [ 15.1390449,   0.0381571,   0.0000000, ]
- [  0.0381571,  15.1389269,   0.0000000, ]
- [  0.0000000,   0.0000000,  24.2860350, ]
lattice_lengths: [  15.13909,   15.13897,   24.28603, ]
lattice_angles: [ 90.000,  90.000,  89.711, ] # degrees, (23, 13, 12)
lattice_volume:   5.5660541E+03
convergence: {deltae:  2.562E-09, res2:  1.704E-08, residm:  4.460E-06, diffor: null, }
etotal    :  -8.89585644E+02
entropy   :   0.00000000E+00
fermie    :   2.24329537E-01
cartesian_stress_tensor: # hartree/bohr^3
- [  4.37617307E-04,   8.19967294E-06,   0.00000000E+00, ]
- [  8.19967294E-06,   4.37417503E-04,   0.00000000E+00, ]
- [  0.00000000E+00,   0.00000000E+00,   4.54854865E-04, ]
pressure_GPa:  -1.3042E+01
xred      :
- [  5.0000E-01,  -2.1684E-19,   1.2500E-01, Eu]
- [  5.0000E-01,  -2.1684E-19,   3.7513E-01, Sr]
- [  5.0000E-01,  -2.1684E-19,   6.2500E-01, Sr]
- [  5.0000E-01,  -2.1684E-19,   8.7487E-01, Sr]
- [ -5.5511E-17,   5.0000E-01,  -1.5730E-05, Sr]
- [ -5.5511E-17,   5.0000E-01,   2.5002E-01, Sr]
- [ -5.5511E-17,   5.0000E-01,   5.0003E-01, Sr]
- [ -5.5511E-17,   5.0000E-01,   7.4997E-01, Sr]
- [  1.2546E-01,   8.2283E-01,   1.2500E-01, Li]
- [  1.2557E-01,   8.2274E-01,   3.7523E-01, Li]
- [  1.2587E-01,   8.2291E-01,   6.2500E-01, Li]
- [  1.2557E-01,   8.2274E-01,   8.7477E-01, Li]
- [  8.7454E-01,   1.7717E-01,   1.2500E-01, Li]
- [  8.7443E-01,   1.7726E-01,   3.7523E-01, Li]
- [  8.7413E-01,   1.7709E-01,   6.2500E-01, Li]
- [  8.7443E-01,   1.7726E-01,   8.7477E-01, Li]
- [  1.7687E-01,   1.2631E-01,  -3.2528E-05, Li]
- [  1.7687E-01,   1.2631E-01,   2.5003E-01, Li]
- [  1.7716E-01,   1.2640E-01,   5.0004E-01, Li]
- [  1.7716E-01,   1.2640E-01,   7.4996E-01, Li]
- [  8.2313E-01,   8.7369E-01,  -3.2528E-05, Li]
- [  8.2313E-01,   8.7369E-01,   2.5003E-01, Li]
- [  8.2284E-01,   8.7360E-01,   5.0004E-01, Li]
- [  8.2284E-01,   8.7360E-01,   7.4996E-01, Li]
- [  3.5283E-01,   6.8439E-01,  -2.2091E-06, Al]
- [  3.5283E-01,   6.8439E-01,   2.5000E-01, Al]
- [  3.5309E-01,   6.8443E-01,   5.0002E-01, Al]
- [  3.5309E-01,   6.8443E-01,   7.4998E-01, Al]
- [  6.4717E-01,   3.1561E-01,  -2.2091E-06, Al]
- [  6.4717E-01,   3.1561E-01,   2.5000E-01, Al]
- [  6.4691E-01,   3.1557E-01,   5.0002E-01, Al]
- [  6.4691E-01,   3.1557E-01,   7.4998E-01, Al]
- [  3.1610E-01,   3.5324E-01,   1.2500E-01, Al]
- [  3.1597E-01,   3.5352E-01,   3.7514E-01, Al]
- [  3.1596E-01,   3.5346E-01,   6.2500E-01, Al]
- [  3.1597E-01,   3.5352E-01,   8.7486E-01, Al]
- [  6.8390E-01,   6.4676E-01,   1.2500E-01, Al]
- [  6.8403E-01,   6.4648E-01,   3.7514E-01, Al]
- [  6.8404E-01,   6.4654E-01,   6.2500E-01, Al]
- [  6.8403E-01,   6.4648E-01,   8.7486E-01, Al]
- [  5.8456E-01,   7.2980E-01,  -1.4894E-04,  N]
- [  5.8456E-01,   7.2980E-01,   2.5015E-01,  N]
- [  5.8471E-01,   7.3007E-01,   5.0005E-01,  N]
- [  5.8471E-01,   7.3007E-01,   7.4995E-01,  N]
- [  4.1544E-01,   2.7020E-01,  -1.4894E-04,  N]
- [  4.1544E-01,   2.7020E-01,   2.5015E-01,  N]
- [  4.1529E-01,   2.6993E-01,   5.0005E-01,  N]
- [  4.1529E-01,   2.6993E-01,   7.4995E-01,  N]
- [  2.7005E-01,   5.8518E-01,   1.2500E-01,  N]
- [  2.7008E-01,   5.8534E-01,   3.7508E-01,  N]
- [  2.7010E-01,   5.8534E-01,   6.2500E-01,  N]
- [  2.7008E-01,   5.8534E-01,   8.7492E-01,  N]
- [  7.2995E-01,   4.1482E-01,   1.2500E-01,  N]
- [  7.2992E-01,   4.1466E-01,   3.7508E-01,  N]
- [  7.2990E-01,   4.1466E-01,   6.2500E-01,  N]
- [  7.2992E-01,   4.1466E-01,   8.7492E-01,  N]
- [  2.5446E-01,   8.9276E-01,  -3.1644E-04,  O]
- [  2.5446E-01,   8.9276E-01,   2.5032E-01,  O]
- [  2.5572E-01,   8.9317E-01,   5.0006E-01,  O]
- [  2.5572E-01,   8.9317E-01,   7.4994E-01,  O]
- [  7.4554E-01,   1.0724E-01,  -3.1644E-04,  O]
- [  7.4554E-01,   1.0724E-01,   2.5032E-01,  O]
- [  7.4428E-01,   1.0683E-01,   5.0006E-01,  O]
- [  7.4428E-01,   1.0683E-01,   7.4994E-01,  O]
- [  1.0773E-01,   2.5688E-01,   1.2500E-01,  O]
- [  1.0770E-01,   2.5694E-01,   3.7507E-01,  O]
- [  1.0760E-01,   2.5689E-01,   6.2500E-01,  O]
- [  1.0770E-01,   2.5694E-01,   8.7493E-01,  O]
- [  8.9227E-01,   7.4312E-01,   1.2500E-01,  O]
- [  8.9230E-01,   7.4306E-01,   3.7507E-01,  O]
- [  8.9240E-01,   7.4311E-01,   6.2500E-01,  O]
- [  8.9230E-01,   7.4306E-01,   8.7493E-01,  O]
cartesian_forces: # hartree/bohr
- [ -3.76459088E-22,  -1.50583635E-21,  -1.41172158E-22, ]
- [ -3.76459088E-22,  -1.50583635E-21,   1.20971323E-05, ]
- [ -3.76459088E-22,  -1.50583635E-21,  -1.41172158E-22, ]
- [ -3.76459088E-22,  -1.50583635E-21,  -1.20971323E-05, ]
- [ -3.76459088E-22,  -1.50583635E-21,   1.74292297E-05, ]
- [ -3.76459088E-22,  -1.50583635E-21,  -1.74292297E-05, ]
- [ -3.76459088E-22,  -1.50583635E-21,   2.25764982E-05, ]
- [ -3.76459088E-22,  -1.50583635E-21,  -2.25764982E-05, ]
- [ -1.53388943E-05,   4.02618549E-05,  -1.41172158E-22, ]
- [ -2.95995514E-05,   4.80223350E-05,  -4.16373175E-06, ]
- [ -3.91414058E-05,   3.20883053E-05,  -1.41172158E-22, ]
- [ -2.95995514E-05,   4.80223350E-05,   4.16373175E-06, ]
- [  1.53388943E-05,  -4.02618549E-05,  -1.41172158E-22, ]
- [  2.95995514E-05,  -4.80223350E-05,  -4.16373175E-06, ]
- [  3.91414058E-05,  -3.20883053E-05,  -1.41172158E-22, ]
- [  2.95995514E-05,  -4.80223350E-05,   4.16373175E-06, ]
- [  2.40365113E-05,   8.68523308E-05,   3.64955009E-06, ]
- [  2.40365113E-05,   8.68523308E-05,  -3.64955009E-06, ]
- [  6.67913162E-06,   8.51291792E-05,   6.66564204E-06, ]
- [  6.67913162E-06,   8.51291792E-05,  -6.66564204E-06, ]
- [ -2.40365113E-05,  -8.68523308E-05,   3.64955009E-06, ]
- [ -2.40365113E-05,  -8.68523308E-05,  -3.64955009E-06, ]
- [ -6.67913162E-06,  -8.51291792E-05,   6.66564204E-06, ]
- [ -6.67913162E-06,  -8.51291792E-05,  -6.66564204E-06, ]
- [ -4.45920392E-05,   7.53266362E-06,   4.69985095E-05, ]
- [ -4.45920392E-05,   7.53266362E-06,  -4.69985095E-05, ]
- [ -7.14252869E-05,   2.80573651E-05,   6.78556049E-05, ]
- [ -7.14252869E-05,   2.80573651E-05,  -6.78556049E-05, ]
- [  4.45920392E-05,  -7.53266362E-06,   4.69985095E-05, ]
- [  4.45920392E-05,  -7.53266362E-06,  -4.69985095E-05, ]
- [  7.14252869E-05,  -2.80573651E-05,   6.78556049E-05, ]
- [  7.14252869E-05,  -2.80573651E-05,  -6.78556049E-05, ]
- [  3.32590616E-05,   7.52558108E-06,  -1.41172158E-22, ]
- [  5.07324199E-05,  -3.03894374E-05,  -5.17233599E-05, ]
- [  4.51379882E-05,   1.27219763E-05,  -1.41172158E-22, ]
- [  5.07324199E-05,  -3.03894374E-05,   5.17233599E-05, ]
- [ -3.32590616E-05,  -7.52558108E-06,  -1.41172158E-22, ]
- [ -5.07324199E-05,   3.03894374E-05,  -5.17233599E-05, ]
- [ -4.51379882E-05,  -1.27219763E-05,  -1.41172158E-22, ]
- [ -5.07324199E-05,   3.03894374E-05,   5.17233599E-05, ]
- [  1.70354342E-05,  -3.11586723E-04,  -2.51516372E-05, ]
- [  1.70354342E-05,  -3.11586723E-04,   2.51516372E-05, ]
- [ -2.44220168E-05,  -2.89995553E-04,  -2.16460280E-05, ]
- [ -2.44220168E-05,  -2.89995553E-04,   2.16460280E-05, ]
- [ -1.70354342E-05,   3.11586723E-04,  -2.51516372E-05, ]
- [ -1.70354342E-05,   3.11586723E-04,   2.51516372E-05, ]
- [  2.44220168E-05,   2.89995553E-04,  -2.16460280E-05, ]
- [  2.44220168E-05,   2.89995553E-04,   2.16460280E-05, ]
- [  2.42854944E-04,  -6.74494722E-05,  -1.41172158E-22, ]
- [  2.45553013E-04,  -7.49800357E-05,  -4.21210050E-05, ]
- [  2.68328901E-04,  -5.27457571E-05,  -1.41172158E-22, ]
- [  2.45553013E-04,  -7.49800357E-05,   4.21210050E-05, ]
- [ -2.42854944E-04,   6.74494722E-05,  -1.41172158E-22, ]
- [ -2.45553013E-04,   7.49800357E-05,  -4.21210050E-05, ]
- [ -2.68328901E-04,   5.27457571E-05,  -1.41172158E-22, ]
- [ -2.45553013E-04,   7.49800357E-05,   4.21210050E-05, ]
- [  2.67242386E-05,   2.29642142E-04,   1.83208942E-05, ]
- [  2.67242386E-05,   2.29642142E-04,  -1.83208942E-05, ]
- [  2.23451093E-06,   2.36902803E-04,  -2.31984108E-05, ]
- [  2.23451093E-06,   2.36902803E-04,   2.31984108E-05, ]
- [ -2.67242386E-05,  -2.29642142E-04,   1.83208942E-05, ]
- [ -2.67242386E-05,  -2.29642142E-04,  -1.83208942E-05, ]
- [ -2.23451093E-06,  -2.36902803E-04,  -2.31984108E-05, ]
- [ -2.23451093E-06,  -2.36902803E-04,   2.31984108E-05, ]
- [ -2.29339901E-04,  -5.30270889E-05,  -1.41172158E-22, ]
- [ -2.11264140E-04,  -5.05972767E-05,   3.63042708E-06, ]
- [ -2.20297274E-04,  -6.10136559E-05,  -1.41172158E-22, ]
- [ -2.11264140E-04,  -5.05972767E-05,  -3.63042708E-06, ]
- [  2.29339901E-04,   5.30270889E-05,  -1.41172158E-22, ]
- [  2.11264140E-04,   5.05972767E-05,   3.63042708E-06, ]
- [  2.20297274E-04,   6.10136559E-05,  -1.41172158E-22, ]
- [  2.11264140E-04,   5.05972767E-05,  -3.63042708E-06, ]
force_length_stats: {min:   1.55858722E-21, max:   3.13064045E-04, mean:   1.46615359E-04, }
...

 Integrated electronic and magnetization densities in atomic spheres:
 ---------------------------------------------------------------------
 Radius=ratsph(iatom), smearing ratsm=  0.0000. Diff(up-dn)=approximate z local magnetic moment.
 Atom    Radius    up_density   dn_density  Total(up+dn)  Diff(up-dn)
    1   2.52170    10.794437     3.914723     14.709160     6.879714
    2   2.20670     3.667722     3.665531      7.333253     0.002192
    3   2.20670     3.667221     3.667053      7.334273     0.000168
    4   2.20670     3.667722     3.665531      7.333253     0.002192
    5   2.20670     3.667451     3.667295      7.334745     0.000156
    6   2.20670     3.667451     3.667295      7.334745     0.000156
    7   2.20670     3.667505     3.667473      7.334978     0.000032
    8   2.20670     3.667505     3.667473      7.334978     0.000032
    9   1.60265     1.054155     1.054112      2.108266     0.000043
   10   1.60265     1.054330     1.054442      2.108772    -0.000112
   11   1.60265     1.054417     1.054416      2.108834     0.000001
   12   1.60265     1.054330     1.054442      2.108772    -0.000112
   13   1.60265     1.054155     1.054112      2.108266     0.000043
   14   1.60265     1.054330     1.054442      2.108772    -0.000112
   15   1.60265     1.054417     1.054416      2.108834     0.000001
   16   1.60265     1.054330     1.054442      2.108772    -0.000112
   17   1.60265     1.054666     1.054515      2.109181     0.000151
   18   1.60265     1.054666     1.054515      2.109181     0.000151
   19   1.60265     1.054641     1.054639      2.109280     0.000001
   20   1.60265     1.054641     1.054639      2.109280     0.000001
   21   1.60265     1.054666     1.054515      2.109181     0.000151
   22   1.60265     1.054666     1.054515      2.109181     0.000151
   23   1.60265     1.054641     1.054639      2.109280     0.000001
   24   1.60265     1.054641     1.054639      2.109280     0.000001
   25   1.90363     0.449875     0.449622      0.899496     0.000253
   26   1.90363     0.449875     0.449622      0.899496     0.000253
   27   1.90363     0.448406     0.448413      0.896819    -0.000008
   28   1.90363     0.448406     0.448413      0.896819    -0.000008
   29   1.90363     0.449875     0.449622      0.899496     0.000253
   30   1.90363     0.449875     0.449622      0.899496     0.000253
   31   1.90363     0.448406     0.448413      0.896819    -0.000008
   32   1.90363     0.448406     0.448413      0.896819    -0.000008
   33   1.90363     0.450888     0.450498      0.901386     0.000389
   34   1.90363     0.450248     0.450589      0.900838    -0.000341
   35   1.90363     0.449455     0.449436      0.898891     0.000019
   36   1.90363     0.450248     0.450589      0.900838    -0.000341
   37   1.90363     0.450888     0.450498      0.901386     0.000389
   38   1.90363     0.450248     0.450589      0.900838    -0.000341
   39   1.90363     0.449455     0.449436      0.898891     0.000019
   40   1.90363     0.450248     0.450589      0.900838    -0.000341
   41   1.20000     1.272562     1.278058      2.550620    -0.005496
   42   1.20000     1.272562     1.278058      2.550620    -0.005496
   43   1.20000     1.278094     1.278101      2.556195    -0.000006
   44   1.20000     1.278094     1.278101      2.556195    -0.000006
   45   1.20000     1.272562     1.278058      2.550620    -0.005496
   46   1.20000     1.272562     1.278058      2.550620    -0.005496
   47   1.20000     1.278094     1.278101      2.556195    -0.000006
   48   1.20000     1.278094     1.278101      2.556195    -0.000006
   49   1.20000     1.277053     1.276838      2.553890     0.000215
   50   1.20000     1.276107     1.276480      2.552587    -0.000373
   51   1.20000     1.276326     1.276332      2.552658    -0.000006
   52   1.20000     1.276107     1.276480      2.552587    -0.000373
   53   1.20000     1.277053     1.276838      2.553890     0.000215
   54   1.20000     1.276107     1.276480      2.552587    -0.000373
   55   1.20000     1.276326     1.276332      2.552658    -0.000006
   56   1.20000     1.276107     1.276480      2.552587    -0.000373
   57   1.41465     2.283469     2.290738      4.574207    -0.007268
   58   1.41465     2.283469     2.290738      4.574207    -0.007268
   59   1.41465     2.296723     2.296758      4.593481    -0.000035
   60   1.41465     2.296723     2.296758      4.593481    -0.000035
   61   1.41465     2.283469     2.290738      4.574207    -0.007268
   62   1.41465     2.283469     2.290738      4.574207    -0.007268
   63   1.41465     2.296723     2.296758      4.593481    -0.000035
   64   1.41465     2.296723     2.296758      4.593481    -0.000035
   65   1.41465     2.288755     2.288691      4.577446     0.000065
   66   1.41465     2.288140     2.288198      4.576338    -0.000057
   67   1.41465     2.287534     2.287534      4.575067     0.000000
   68   1.41465     2.288140     2.288198      4.576338    -0.000057
   69   1.41465     2.288755     2.288691      4.577446     0.000065
   70   1.41465     2.288140     2.288198      4.576338    -0.000057
   71   1.41465     2.287534     2.287534      4.575067     0.000000
   72   1.41465     2.288140     2.288198      4.576338    -0.000057
 ---------------------------------------------------------------------
  Sum:            117.573226   110.740293    228.313519     6.832933
 Total magnetization (from the atomic spheres):             6.832933
 Total magnetization (exact up - dn):                       6.999982
 
 PAW TEST:
 ==== Compensation charge inside spheres ============
 The following values must be close to each other ...
 Compensation charge over spherical meshes =     28.789600385108656
 Compensation charge over fine fft grid    =     28.790761066258444
 
 ==== Results concerning PAW augmentation regions ====
 
 Total pseudopotential strength Dij (hartree):
 Atom #  1 - Spin component 1
  -0.73978  -0.07722   0.00000   0.00000   0.00000   0.00000   0.00000   0.00000  -0.00003   0.00000   0.00006   0.00000 ...
  -0.07722  -0.09193   0.00000   0.00000   0.00000   0.00000   0.00000   0.00000  -0.00000   0.00000   0.00001   0.00000 ...
   0.00000   0.00000  -0.72047   0.00000   0.00005   0.15129   0.00000  -0.00019   0.00000   0.00000   0.00000   0.00000 ...
   0.00000   0.00000   0.00000  -0.72060   0.00000   0.00000   0.15180   0.00000   0.00000   0.00000   0.00000   0.00000 ...
   0.00000   0.00000   0.00005   0.00000  -0.72034  -0.00019   0.00000   0.15089   0.00000   0.00000   0.00000   0.00000 ...
   0.00000   0.00000   0.15129   0.00000  -0.00019   0.88427   0.00000   0.00007   0.00000   0.00000   0.00000   0.00000 ...
   0.00000   0.00000   0.00000   0.15180   0.00000   0.00000   0.88414   0.00000   0.00000   0.00000   0.00000   0.00000 ...
   0.00000   0.00000  -0.00019   0.00000   0.15089   0.00007   0.00000   0.88441   0.00000   0.00000   0.00000   0.00000 ...
  -0.00003  -0.00000   0.00000   0.00000   0.00000   0.00000   0.00000   0.00000  -0.18727   0.00000   0.00000   0.00000 ...
   0.00000   0.00000   0.00000   0.00000   0.00000   0.00000   0.00000   0.00000   0.00000  -0.18728   0.00000  -0.00000 ...
   0.00006   0.00001   0.00000   0.00000   0.00000   0.00000   0.00000   0.00000   0.00000   0.00000  -0.18727   0.00000 ...
   0.00000   0.00000   0.00000   0.00000   0.00000   0.00000   0.00000   0.00000   0.00000  -0.00000   0.00000  -0.18728 ...
   ...  only 12  components have been written...
 Atom #  1 - Spin component 2
  -0.66049  -0.06804   0.00000   0.00000   0.00000   0.00000   0.00000   0.00000   0.00001   0.00000   0.00000   0.00000 ...
  -0.06804  -0.09100   0.00000   0.00000   0.00000   0.00000   0.00000   0.00000   0.00001   0.00000  -0.00001   0.00000 ...
   0.00000   0.00000  -0.65460   0.00000   0.00012   0.08076   0.00000  -0.00025   0.00000   0.00000   0.00000   0.00000 ...
   0.00000   0.00000   0.00000  -0.65481   0.00000   0.00000   0.08135   0.00000   0.00000   0.00000   0.00000   0.00000 ...
   0.00000   0.00000   0.00012   0.00000  -0.65432  -0.00025   0.00000   0.08025   0.00000   0.00000   0.00000   0.00000 ...
   0.00000   0.00000   0.08076   0.00000  -0.00025   0.95542   0.00000   0.00013   0.00000   0.00000   0.00000   0.00000 ...
   0.00000   0.00000   0.00000   0.08135   0.00000   0.00000   0.95521   0.00000   0.00000   0.00000   0.00000   0.00000 ...
   0.00000   0.00000  -0.00025   0.00000   0.08025   0.00013   0.00000   0.95572   0.00000   0.00000   0.00000   0.00000 ...
   0.00001   0.00001   0.00000   0.00000   0.00000   0.00000   0.00000   0.00000  -0.17264   0.00000  -0.00001   0.00000 ...
   0.00000   0.00000   0.00000   0.00000   0.00000   0.00000   0.00000   0.00000   0.00000  -0.17260   0.00000   0.00001 ...
   0.00000  -0.00001   0.00000   0.00000   0.00000   0.00000   0.00000   0.00000  -0.00001   0.00000  -0.17273   0.00000 ...
   0.00000   0.00000   0.00000   0.00000   0.00000   0.00000   0.00000   0.00000   0.00000   0.00001   0.00000  -0.17257 ...
   ...  only 12  components have been written...
 Atom # 72 - Spin component 1
   0.61082  -1.74571   0.00029   0.00000   0.00065  -0.00204  -0.00001  -0.00461
  -1.74571   5.05065  -0.00078  -0.00000  -0.00176   0.00553   0.00003   0.01256
   0.00029  -0.00078  -0.29724   0.00000  -0.00029   0.90420  -0.00000   0.00155
   0.00000  -0.00000   0.00000  -0.29697   0.00000  -0.00000   0.90272  -0.00000
   0.00065  -0.00176  -0.00029   0.00000  -0.29768   0.00155  -0.00000   0.90651
  -0.00204   0.00553   0.90420  -0.00000   0.00155   0.05019   0.00001  -0.00783
  -0.00001   0.00003  -0.00000   0.90272  -0.00000   0.00001   0.05802   0.00002
  -0.00461   0.01256   0.00155  -0.00000   0.90651  -0.00783   0.00002   0.03872
 Atom # 72 - Spin component 2
   0.61082  -1.74570   0.00029   0.00000   0.00065  -0.00204  -0.00001  -0.00461
  -1.74570   5.05063  -0.00078  -0.00000  -0.00176   0.00554   0.00003   0.01255
   0.00029  -0.00078  -0.29724   0.00000  -0.00029   0.90421  -0.00000   0.00155
   0.00000  -0.00000   0.00000  -0.29697   0.00000  -0.00000   0.90272  -0.00000
   0.00065  -0.00176  -0.00029   0.00000  -0.29768   0.00155  -0.00000   0.90652
  -0.00204   0.00554   0.90421  -0.00000   0.00155   0.05016   0.00001  -0.00784
  -0.00001   0.00003  -0.00000   0.90272  -0.00000   0.00001   0.05798   0.00002
  -0.00461   0.01255   0.00155  -0.00000   0.90652  -0.00784   0.00002   0.03868
 
 
 Augmentation waves occupancies Rhoij:
 Atom #  1 - Spin component 1
   0.99337   0.00040   0.00000   0.00000   0.00000   0.00000   0.00000   0.00000  -0.00002   0.00000  -0.00003   0.00000 ...
   0.00040   0.12463   0.00000   0.00000   0.00000   0.00000   0.00000   0.00000  -0.00166   0.00000   0.00326   0.00000 ...
   0.00000   0.00000   0.99838   0.00000   0.00055   0.01485   0.00000  -0.00036   0.00000   0.00000   0.00000   0.00000 ...
   0.00000   0.00000   0.00000   0.99712   0.00000   0.00000   0.01593   0.00000   0.00000   0.00000   0.00000   0.00000 ...
   0.00000   0.00000   0.00055   0.00000   0.99815  -0.00036   0.00000   0.01518   0.00000   0.00000   0.00000   0.00000 ...
   0.00000   0.00000   0.01485   0.00000  -0.00036   0.00460   0.00000   0.00002   0.00000   0.00000   0.00000   0.00000 ...
   0.00000   0.00000   0.00000   0.01593   0.00000   0.00000   0.00443   0.00000   0.00000   0.00000   0.00000   0.00000 ...
   0.00000   0.00000  -0.00036   0.00000   0.01518   0.00002   0.00000   0.00395   0.00000   0.00000   0.00000   0.00000 ...
  -0.00002  -0.00166   0.00000   0.00000   0.00000   0.00000   0.00000   0.00000   0.03172   0.00000  -0.00000   0.00000 ...
   0.00000   0.00000   0.00000   0.00000   0.00000   0.00000   0.00000   0.00000   0.00000   0.05544   0.00000  -0.00156 ...
  -0.00003   0.00326   0.00000   0.00000   0.00000   0.00000   0.00000   0.00000  -0.00000   0.00000   0.01475   0.00000 ...
   0.00000   0.00000   0.00000   0.00000   0.00000   0.00000   0.00000   0.00000   0.00000  -0.00156   0.00000   0.04782 ...
   ...  only 12  components have been written...
 Atom #  1 - Spin component 2
   0.92847   0.13584   0.00000   0.00000   0.00000   0.00000   0.00000   0.00000  -0.00059   0.00000   0.00068   0.00000 ...
   0.13584   0.12222   0.00000   0.00000   0.00000   0.00000   0.00000   0.00000  -0.00091   0.00000   0.00227   0.00000 ...
   0.00000   0.00000   0.98513   0.00000   0.00068   0.03772   0.00000  -0.00034   0.00000   0.00000   0.00000   0.00000 ...
   0.00000   0.00000   0.00000   0.98338   0.00000   0.00000   0.03884   0.00000   0.00000   0.00000   0.00000   0.00000 ...
   0.00000   0.00000   0.00068   0.00000   0.98480  -0.00034   0.00000   0.03808   0.00000   0.00000   0.00000   0.00000 ...
   0.00000   0.00000   0.03772   0.00000  -0.00034   0.00502   0.00000   0.00001   0.00000   0.00000   0.00000   0.00000 ...
   0.00000   0.00000   0.00000   0.03884   0.00000   0.00000   0.00490   0.00000   0.00000   0.00000   0.00000   0.00000 ...
   0.00000   0.00000  -0.00034   0.00000   0.03808   0.00001   0.00000   0.00449   0.00000   0.00000   0.00000   0.00000 ...
  -0.00059  -0.00091   0.00000   0.00000   0.00000   0.00000   0.00000   0.00000   0.02204   0.00000   0.00008   0.00000 ...
   0.00000   0.00000   0.00000   0.00000   0.00000   0.00000   0.00000   0.00000   0.00000   0.03890   0.00000  -0.00072 ...
   0.00068   0.00227   0.00000   0.00000   0.00000   0.00000   0.00000   0.00000   0.00008   0.00000   0.00996   0.00000 ...
   0.00000   0.00000   0.00000   0.00000   0.00000   0.00000   0.00000   0.00000   0.00000  -0.00072   0.00000   0.03362 ...
   ...  only 12  components have been written...
 Atom # 72 - Spin component 1
   0.98019   0.01469  -0.00057   0.00001  -0.00031  -0.00066  -0.00000  -0.00147
   0.01469   0.00038  -0.00186  -0.00001  -0.00427  -0.00009  -0.00000  -0.00016
  -0.00057  -0.00186   0.90927   0.00003   0.00465   0.02010  -0.00000   0.00131
   0.00001  -0.00001   0.00003   0.92470   0.00009  -0.00000   0.01975   0.00000
  -0.00031  -0.00427   0.00465   0.00009   0.92817   0.00130   0.00000   0.02251
  -0.00066  -0.00009   0.02010  -0.00000   0.00130   0.00047   0.00000   0.00006
  -0.00000  -0.00000  -0.00000   0.01975   0.00000   0.00000   0.00044   0.00000
  -0.00147  -0.00016   0.00131   0.00000   0.02251   0.00006   0.00000   0.00059
 Atom # 72 - Spin component 2
   0.98018   0.01469  -0.00058   0.00000  -0.00029  -0.00066  -0.00000  -0.00147
   0.01469   0.00038  -0.00186  -0.00001  -0.00427  -0.00009  -0.00000  -0.00016
  -0.00058  -0.00186   0.90930   0.00003   0.00466   0.02011   0.00000   0.00131
   0.00000  -0.00001   0.00003   0.92476   0.00007   0.00000   0.01975  -0.00000
  -0.00029  -0.00427   0.00466   0.00007   0.92823   0.00130   0.00000   0.02251
  -0.00066  -0.00009   0.02011   0.00000   0.00130   0.00047   0.00000   0.00006
  -0.00000  -0.00000   0.00000   0.01975   0.00000   0.00000   0.00044   0.00000
  -0.00147  -0.00016   0.00131  -0.00000   0.02251   0.00006   0.00000   0.00059
 
 "PAW+U" part of augmentation waves occupancies Rhoij:
 Atom #  1 - L=3 ONLY - Spin component 1
   1.21108   0.00000   0.00087   0.00000   0.00140   0.00000   0.00087   0.07384   0.00000   0.00034   0.00000   0.00125   0.00000   0.00076
   0.00000   1.20771   0.00000   0.00043   0.00000  -0.00717   0.00000   0.00000   0.07335   0.00000  -0.00029   0.00000  -0.00147   0.00000
   0.00087   0.00000   1.21909   0.00000  -0.00153   0.00000  -0.00156   0.00034   0.00000   0.07762   0.00000  -0.00073   0.00000  -0.00028
   0.00000   0.00043   0.00000   1.22238   0.00000   0.00283   0.00000   0.00000  -0.00027   0.00000   0.07975   0.00000   0.00138   0.00000
   0.00140   0.00000  -0.00153   0.00000   1.21321   0.00000   0.00301   0.00126   0.00000  -0.00073   0.00000   0.07438   0.00000   0.00174
   0.00000  -0.00717   0.00000   0.00283   0.00000   1.20514   0.00000   0.00000  -0.00147   0.00000   0.00134   0.00000   0.07241   0.00000
   0.00087   0.00000  -0.00156   0.00000   0.00301   0.00000   1.21477   0.00077   0.00000  -0.00029   0.00000   0.00175   0.00000   0.07576
   0.07384   0.00000   0.00034   0.00000   0.00126   0.00000   0.00077   0.00634   0.00000   0.00005   0.00000   0.00051   0.00000  -0.00002
   0.00000   0.07335   0.00000  -0.00027   0.00000  -0.00147   0.00000   0.00000   0.00830   0.00000  -0.00032   0.00000   0.00235   0.00000
   0.00034   0.00000   0.07762   0.00000  -0.00073   0.00000  -0.00029   0.00005   0.00000   0.00686   0.00000   0.00013   0.00000   0.00013
   0.00000  -0.00029   0.00000   0.07975   0.00000   0.00134   0.00000   0.00000  -0.00032   0.00000   0.00705   0.00000   0.00043   0.00000
   0.00125   0.00000  -0.00073   0.00000   0.07438   0.00000   0.00175   0.00051   0.00000   0.00013   0.00000   0.00651   0.00000   0.00026
   0.00000  -0.00147   0.00000   0.00138   0.00000   0.07241   0.00000   0.00000   0.00235   0.00000   0.00043   0.00000   0.00869   0.00000
   0.00076   0.00000  -0.00028   0.00000   0.00174   0.00000   0.07576  -0.00002   0.00000   0.00013   0.00000   0.00026   0.00000   0.00638
 Atom #  1 - L=3 ONLY - Spin component 2
   0.00991   0.00000   0.00005   0.00000   0.00214   0.00000  -0.00049   0.00438   0.00000   0.00003   0.00000   0.00094   0.00000  -0.00023
   0.00000   0.02005   0.00000  -0.00142   0.00000   0.01304   0.00000   0.00000   0.00884   0.00000  -0.00065   0.00000   0.00571   0.00000
   0.00005   0.00000   0.01046   0.00000   0.00098   0.00000   0.00111   0.00003   0.00000   0.00461   0.00000   0.00046   0.00000   0.00046
   0.00000  -0.00142   0.00000   0.01029   0.00000   0.00151   0.00000   0.00000  -0.00065   0.00000   0.00457   0.00000   0.00067   0.00000
   0.00214   0.00000   0.00098   0.00000   0.01041   0.00000   0.00034   0.00094   0.00000   0.00046   0.00000   0.00460   0.00000   0.00016
   0.00000   0.01304   0.00000   0.00151   0.00000   0.02248   0.00000   0.00000   0.00571   0.00000   0.00066   0.00000   0.00992   0.00000
  -0.00049   0.00000   0.00111   0.00000   0.00034   0.00000   0.00881  -0.00023   0.00000   0.00046   0.00000   0.00016   0.00000   0.00391
   0.00438   0.00000   0.00003   0.00000   0.00094   0.00000  -0.00023   0.00194   0.00000   0.00001   0.00000   0.00041   0.00000  -0.00010
   0.00000   0.00884   0.00000  -0.00065   0.00000   0.00571   0.00000   0.00000   0.00390   0.00000  -0.00030   0.00000   0.00250   0.00000
   0.00003   0.00000   0.00461   0.00000   0.00046   0.00000   0.00046   0.00001   0.00000   0.00203   0.00000   0.00021   0.00000   0.00019
   0.00000  -0.00065   0.00000   0.00457   0.00000   0.00066   0.00000   0.00000  -0.00030   0.00000   0.00204   0.00000   0.00030   0.00000
   0.00094   0.00000   0.00046   0.00000   0.00460   0.00000   0.00016   0.00041   0.00000   0.00021   0.00000   0.00203   0.00000   0.00008
   0.00000   0.00571   0.00000   0.00067   0.00000   0.00992   0.00000   0.00000   0.00250   0.00000   0.00030   0.00000   0.00439   0.00000
  -0.00023   0.00000   0.00046   0.00000   0.00016   0.00000   0.00391  -0.00010   0.00000   0.00019   0.00000   0.00008   0.00000   0.00174
 
 ---------- DFT+U DATA --------------------------------------------------- 
 
 ====== For Atom     1, occupations for correlated orbitals. lpawu =   3
 
 Atom   1. Occ. for lpawu and for spin  1 =   6.82085
 Atom   1. Occ. for lpawu and for spin  2 =   0.01564
 => On atom   1,  local Mag. for lpawu is       -6.805214
 
 == Occupation matrix for correlated orbitals:
 
 Occupation matrix for spin  1
     0.97432    0.00000   -0.00008    0.00000   -0.00108    0.00000   -0.00170
     0.00000    0.97888    0.00000    0.00032    0.00000    0.00528    0.00000
    -0.00008    0.00000    0.97153    0.00000    0.00128    0.00000   -0.00020
     0.00000    0.00032    0.00000    0.96844    0.00000   -0.00029    0.00000
    -0.00108    0.00000    0.00128    0.00000    0.97519    0.00000   -0.00190
     0.00000    0.00528    0.00000   -0.00029    0.00000    0.98069    0.00000
    -0.00170    0.00000   -0.00020    0.00000   -0.00190    0.00000    0.97181
 
 
 Occupation matrix for spin  2
     0.00167    0.00000    0.00001    0.00000    0.00037    0.00000   -0.00008
     0.00000    0.00340    0.00000   -0.00023    0.00000    0.00223    0.00000
     0.00001    0.00000    0.00177    0.00000    0.00016    0.00000    0.00020
     0.00000   -0.00023    0.00000    0.00174    0.00000    0.00026    0.00000
     0.00037    0.00000    0.00016    0.00000    0.00176    0.00000    0.00005
     0.00000    0.00223    0.00000    0.00026    0.00000    0.00381    0.00000
    -0.00008    0.00000    0.00020    0.00000    0.00005    0.00000    0.00148
 
 
 
================================================================================
 
 ----iterations are completed or convergence reached----
 
GS calculation converged with prtwf=-1 --> Skipping WFK file output
 reduced coordinates (array xred) for   72 atoms
       0.500000000000     -0.000000000000      0.125000000000
       0.500000000000     -0.000000000000      0.375130065000
       0.500000000000     -0.000000000000      0.625000000000
       0.500000000000     -0.000000000000      0.874869935000
      -0.000000000000      0.500000000000     -0.000015729905
      -0.000000000000      0.500000000000      0.250015729905
      -0.000000000000      0.500000000000      0.500030244900
      -0.000000000000      0.500000000000      0.749969755100
       0.125462558300      0.822827686800      0.125000000000
       0.125568204600      0.822741973900      0.375230617500
[...]
                       2.5384831051E+00  2.8384633397E+00  1.1243342971E+01
                       5.4919312077E+00  5.1950835211E+00  1.6064520240E+00
                       5.4929463008E+00  5.1929035882E+00  4.8211772694E+00
                       5.4930861380E+00  5.1933868809E+00  8.0322601200E+00
                       5.4929463008E+00  5.1929035882E+00  1.1243342971E+01
                       4.6978004701E+00  5.8583626769E+00 -1.9141503410E-03
                       4.6978004701E+00  5.8583626769E+00  3.2148181983E+00
                       4.6990215655E+00  5.8605170226E+00  6.4265129545E+00
                       4.6990215655E+00  5.8605170226E+00  9.6380072856E+00
                       3.3336289358E+00  2.1730042511E+00 -1.9141503410E-03
                       3.3336289358E+00  2.1730042511E+00  3.2148181983E+00
                       3.3324078403E+00  2.1708499053E+00  6.4265129545E+00
                       3.3324078403E+00  2.1708499053E+00  9.6380072856E+00
                       2.1752377891E+00  4.6934176008E+00  1.6064520240E+00
                       2.1755122445E+00  4.6947262127E+00  4.8203563159E+00
                       2.1756741970E+00  4.6946858403E+00  8.0322601200E+00
                       2.1755122445E+00  4.6947262127E+00  1.1244163924E+01
                       5.8561916167E+00  3.3379493271E+00  1.6064520240E+00
                       5.8559171614E+00  3.3366407152E+00  4.8203563159E+00
                       5.8557552088E+00  3.3366810876E+00  8.0322601200E+00
                       5.8559171614E+00  3.3366407152E+00  1.1244163924E+01
                       2.0565788173E+00  7.1572216329E+00 -4.0667076381E-03
                       2.0565788173E+00  7.1572216329E+00  3.2169707556E+00
                       2.0666318964E+00  7.1605407112E+00  6.4265354062E+00
                       2.0666318964E+00  7.1605407112E+00  9.6379848338E+00
                       5.9748505885E+00  8.7414529499E-01 -4.0667076381E-03
                       5.9748505885E+00  8.7414529499E-01  3.2169707556E+00
                       5.9647975095E+00  8.7082621672E-01  6.4265354062E+00
                       5.9647975095E+00  8.7082621672E-01  9.6379848338E+00
                       8.6824821949E-01  2.0600565396E+00  1.6064520240E+00
                       8.6799065423E-01  2.0605749456E+00  4.8202262909E+00
                       8.6722666715E-01  2.0601317617E+00  8.0322601200E+00
                       8.6799065423E-01  2.0605749456E+00  1.1244293949E+01
                       7.1631811863E+00  5.9713103883E+00  1.6064520240E+00
                       7.1634387516E+00  5.9707919823E+00  4.8202262909E+00
                       7.1642027387E+00  5.9712351662E+00  8.0322601200E+00
                       7.1634387516E+00  5.9707919823E+00  1.1244293949E+01
            xcart      7.5695224642E+00  1.9078552100E-02  3.0357543710E+00
                       7.5695224642E+00  1.9078552100E-02  9.1104218761E+00
                       7.5695224642E+00  1.9078552100E-02  1.5178771855E+01
                       7.5695224642E+00  1.9078552100E-02  2.1247121834E+01
                       1.9078552100E-02  7.5694634311E+00 -3.8201703448E-04
                       1.9078552100E-02  7.5694634311E+00  6.0718907590E+00
                       1.9078552100E-02  7.5694634311E+00  1.2143752013E+01
                       1.9078552100E-02  7.5694634311E+00  1.8213791697E+01
                       1.9307800287E+00  1.2461515459E+01  3.0357543710E+00
                       1.9323761422E+00  1.2460221888E+01  9.1128638976E+00
                       1.9369326589E+00  1.2462813201E+01  1.5178771855E+01
                       1.9323761422E+00  1.2460221888E+01  2.1244679812E+01
                       1.3246422004E+01  2.7155685078E+00  3.0357543710E+00
                       1.3244825890E+01  2.7168620780E+00  9.1128638976E+00
                       1.3240269374E+01  2.7142707658E+00  1.5178771855E+01
                       1.3244825890E+01  2.7168620780E+00  2.1244679812E+01
                       2.6824389274E+00  1.9189346481E+00 -7.8996592140E-04
                       2.6824389274E+00  1.9189346481E+00  6.0722987079E+00
                       2.6868790553E+00  1.9203233169E+00  1.2143872102E+01
                       2.6868790553E+00  1.9203233169E+00  1.8213671608E+01
                       1.2494763105E+01  1.3258149318E+01 -7.8996592140E-04
                       1.2494763105E+01  1.3258149318E+01  6.0722987079E+00
                       1.2490322977E+01  1.3256760650E+01  1.2143872102E+01
                       1.2490322977E+01  1.3256760650E+01  1.8213671608E+01
                       5.3676320171E+00  1.0374409711E+01 -5.3649772227E-05
                       5.3676320171E+00  1.0374409711E+01  6.0715623917E+00
                       5.3715167588E+00  1.0375048041E+01  1.2143599110E+01
                       5.3715167588E+00  1.0375048041E+01  1.8213944600E+01
                       9.8095700155E+00  4.8026742554E+00 -5.3649772227E-05
                       9.8095700155E+00  4.8026742554E+00  6.0715623917E+00
                       9.8056852738E+00  4.8020359256E+00  1.2143599110E+01
                       9.8056852738E+00  4.8020359256E+00  1.8213944600E+01
                       4.7989561095E+00  5.3597988741E+00  3.0357543710E+00
                       4.7970378615E+00  5.3639183503E+00  9.1107046773E+00
                       4.7967736074E+00  5.3630050595E+00  1.5178771855E+01
                       4.7970378615E+00  5.3639183503E+00  2.1246839033E+01
                       1.0378245923E+01  9.8172850924E+00  3.0357543710E+00
                       1.0380164171E+01  9.8131656162E+00  9.1107046773E+00
                       1.0380428425E+01  9.8140789070E+00  1.5178771855E+01
                       1.0380164171E+01  9.8131656162E+00  2.1246839033E+01
                       8.8775563153E+00  1.1070701046E+01 -3.6172199217E-03
                       8.8775563153E+00  1.1070701046E+01  6.0751259619E+00
                       8.8798638514E+00  1.1074772170E+01  1.2144349473E+01
                       8.8798638514E+00  1.1074772170E+01  1.8213194236E+01
                       6.2996457173E+00  4.1063829201E+00 -3.6172199217E-03
                       6.2996457173E+00  4.1063829201E+00  6.0751259619E+00
                       6.2973381812E+00  4.1023117967E+00  1.2144349473E+01
                       6.2973381812E+00  4.1023117967E+00  1.8213194236E+01
                       4.1106036953E+00  8.8692738928E+00  3.0357543710E+00
                       4.1111223408E+00  8.8717468110E+00  9.1091532999E+00
                       4.1114283867E+00  8.8716705181E+00  1.5178771855E+01
                       4.1111223408E+00  8.8717468110E+00  2.1248390410E+01
                       1.1066598337E+01  6.3078100737E+00  3.0357543710E+00
                       1.1066079692E+01  6.3053371555E+00  9.1091532999E+00
                       1.1065773646E+01  6.3054134484E+00  1.5178771855E+01
                       1.1066079692E+01  6.3053371555E+00  2.1248390410E+01
                       3.8863707354E+00  1.3525188759E+01 -7.6849636985E-03
                       3.8863707354E+00  1.3525188759E+01  6.0791937057E+00
                       3.9053683016E+00  1.3531460908E+01  1.2144391901E+01
                       3.9053683016E+00  1.3531460908E+01  1.8213151809E+01
                       1.1290831297E+01  1.6518952079E+00 -7.6849636985E-03
                       1.1290831297E+01  1.6518952079E+00  6.0791937057E+00
                       1.1271833731E+01  1.6456230589E+00  1.2144391901E+01
                       1.1271833731E+01  1.6456230589E+00  1.8213151809E+01
                       1.6407513502E+00  3.8929426781E+00  3.0357543710E+00
                       1.6402646224E+00  3.8939223235E+00  9.1089075884E+00
                       1.6388208961E+00  3.8930848272E+00  1.5178771855E+01
                       1.6402646224E+00  3.8939223235E+00  2.1248636121E+01
                       1.3536450682E+01  1.1284141288E+01  3.0357543710E+00
                       1.3536937410E+01  1.1283161643E+01  9.1089075884E+00
                       1.3538381137E+01  1.1283999139E+01  1.5178771855E+01
                       1.3536937410E+01  1.1283161643E+01  2.1248636121E+01
             xred      5.0000000000E-01 -2.1684043450E-19  1.2500000000E-01
                       5.0000000000E-01 -2.1684043450E-19  3.7513006500E-01
                       5.0000000000E-01 -2.1684043450E-19  6.2500000000E-01
                       5.0000000000E-01 -2.1684043450E-19  8.7486993500E-01
                      -5.5511151231E-17  5.0000000000E-01 -1.5729905478E-05
                      -5.5511151231E-17  5.0000000000E-01  2.5001572991E-01
                      -5.5511151231E-17  5.0000000000E-01  5.0003024490E-01
                      -5.5511151231E-17  5.0000000000E-01  7.4996975510E-01
                       1.2546255830E-01  8.2282768680E-01  1.2500000000E-01
                       1.2556820460E-01  8.2274197390E-01  3.7523061750E-01
                       1.2586875290E-01  8.2291238520E-01  6.2500000000E-01
                       1.2556820460E-01  8.2274197390E-01  8.7476938250E-01
                       8.7453744170E-01  1.7717231320E-01  1.2500000000E-01
                       8.7443179540E-01  1.7725802610E-01  3.7523061750E-01
                       8.7413124710E-01  1.7708761480E-01  6.2500000000E-01
                       8.7443179540E-01  1.7725802610E-01  8.7476938250E-01
                       1.7686844490E-01  1.2630920790E-01 -3.2527579016E-05
                       1.7686844490E-01  1.2630920790E-01  2.5003252758E-01
                       1.7716150540E-01  1.2640019760E-01  5.0003518970E-01
                       1.7716150540E-01  1.2640019760E-01  7.4996481030E-01
                       8.2313155510E-01  8.7369079210E-01 -3.2527579016E-05
                       8.2313155510E-01  8.7369079210E-01  2.5003252758E-01
                       8.2283849460E-01  8.7359980240E-01  5.0003518970E-01
                       8.2283849460E-01  8.7359980240E-01  7.4996481030E-01
                       3.5283055570E-01  6.8439109410E-01 -2.2090790982E-06
                       3.5283055570E-01  6.8439109410E-01  2.5000220908E-01
                       3.5308705520E-01  6.8443261240E-01  5.0002394900E-01
                       3.5308705520E-01  6.8443261240E-01  7.4997605100E-01
                       6.4716944430E-01  3.1560890590E-01 -2.2090790982E-06
                       6.4716944430E-01  3.1560890590E-01  2.5000220908E-01
                       6.4691294480E-01  3.1556738760E-01  5.0002394900E-01
                       6.4691294480E-01  3.1556738760E-01  7.4997605100E-01
                       3.1610166680E-01  3.5324414990E-01  1.2500000000E-01
                       3.1597427150E-01  3.5351658250E-01  3.7514170960E-01
                       3.1595696830E-01  3.5345629880E-01  6.2500000000E-01
                       3.1597427150E-01  3.5351658250E-01  8.7485829040E-01
                       6.8389833320E-01  6.4675585010E-01  1.2500000000E-01
                       6.8402572850E-01  6.4648341750E-01  3.7514170960E-01
                       6.8404303170E-01  6.4654370120E-01  6.2500000000E-01
                       6.8402572850E-01  6.4648341750E-01  8.7485829040E-01
                       5.8456192480E-01  7.2980046450E-01 -1.4894238300E-04
                       5.8456192480E-01  7.2980046450E-01  2.5014894238E-01
                       5.8471367080E-01  7.3006899960E-01  5.0005484590E-01
                       5.8471367080E-01  7.3006899960E-01  7.4994515410E-01
                       4.1543807520E-01  2.7019953550E-01 -1.4894238300E-04
                       4.1543807520E-01  2.7019953550E-01  2.5014894238E-01
                       4.1528632920E-01  2.6993100040E-01  5.0005484590E-01
                       4.1528632920E-01  2.6993100040E-01  7.4994515410E-01
                       2.7004840860E-01  5.8517817730E-01  1.2500000000E-01
                       2.7008225590E-01  5.8534144030E-01  3.7507783020E-01
                       2.7010248440E-01  5.8533634980E-01  6.2500000000E-01
                       2.7008225590E-01  5.8534144030E-01  8.7492216980E-01
                       7.2995159140E-01  4.1482182270E-01  1.2500000000E-01
                       7.2991774410E-01  4.1465855970E-01  3.7507783020E-01
                       7.2989751560E-01  4.1466365020E-01  6.2500000000E-01
                       7.2991774410E-01  4.1465855970E-01  8.7492216980E-01
                       2.5446159180E-01  8.9276336190E-01 -3.1643550331E-04
                       2.5446159180E-01  8.9276336190E-01  2.5031643550E-01
                       2.5571542770E-01  8.9317450770E-01  5.0005659290E-01
                       2.5571542770E-01  8.9317450770E-01  7.4994340710E-01
                       7.4553840820E-01  1.0723663810E-01 -3.1643550331E-04
                       7.4553840820E-01  1.0723663810E-01  2.5031643550E-01
                       7.4428457230E-01  1.0682549230E-01  5.0005659290E-01
                       7.4428457230E-01  1.0682549230E-01  7.4994340710E-01
                       1.0773134640E-01  2.5687632930E-01  1.2500000000E-01
                       1.0769903260E-01  2.5694112110E-01  3.7506771280E-01
                       1.0760380700E-01  2.5688604040E-01  6.2500000000E-01
                       1.0769903260E-01  2.5694112110E-01  8.7493228720E-01
                       8.9226865360E-01  7.4312367070E-01  1.2500000000E-01
                       8.9230096740E-01  7.4305887890E-01  3.7506771280E-01
                       8.9239619300E-01  7.4311395960E-01  6.2500000000E-01
                       8.9230096740E-01  7.4305887890E-01  8.7493228720E-01
            znucl       63.00000   38.00000    3.00000   13.00000    7.00000    8.00000
 
================================================================================


- Timing analysis has been suppressed with timopt=0



================================================================================

 Suggested references for the acknowledgment of ABINIT usage.

 The users of ABINIT have little formal obligations with respect to the ABINIT group
 (those specified in the GNU General Public License, http://www.gnu.org/copyleft/gpl.txt).
 However, it is common practice in the scientific literature,
 to acknowledge the efforts of people that have made the research possible.
 In this spirit, please find below suggested citations of work written by ABINIT developers,
 corresponding to implementations inside of ABINIT that you have used in the present run.
 Note also that it will be of great value to readers of publications presenting these results,
 to read papers enabling them to understand the theoretical formalism and details
 of the ABINIT implementation.
 For information on why they are suggested, see also https://docs.abinit.org/theory/acknowledgments.
-
- [1] Gamma and beta cerium: DFT+U calculations of ground-state parameters.
- B. Amadon, F. Jollet and M. Torrent, Phys. Rev. B 77, 155104 (2008).
- Comment: DFT+U calculations, usepawu/=0. Strong suggestion to cite this paper.
- DOI and bibtex: see https://docs.abinit.org/theory/bibliography/#amadon2008a
-
- [2] Implementation of the Projector Augmented-Wave Method in the ABINIT code.
- M. Torrent, F. Jollet, F. Bottin, G. Zerah, and X. Gonze Comput. Mat. Science 42, 337, (2008).
- Comment: PAW calculations. Strong suggestion to cite this paper.
- DOI and bibtex: see https://docs.abinit.org/theory/bibliography/#torrent2008
-
- [3] Libxc: A library of exchange and correlation functionals for density functional theory.
- M.A.L. Marques, M.J.T. Oliveira, T. Burnus, Computer Physics Communications 183, 2227 (2012).
- Comment: to be cited when LibXC is used (negative value of ixc)
- Strong suggestion to cite this paper.
- DOI and bibtex: see https://docs.abinit.org/theory/bibliography/#marques2012
-
- [4] Large scale ab initio calculations based on three levels of parallelization
- F. Bottin, S. Leroux, A. Knyazev, G. Zerah, Comput. Mat. Science 42, 329, (2008).
- Comment: in case LOBPCG algorithm is used (wfoptalg=4/14/114).
- Strong suggestion to cite this paper in your publications.
- This paper is also available at http://www.arxiv.org/abs/0707.3405
- DOI and bibtex: see https://docs.abinit.org/theory/bibliography/#bottin2008
-
- [5] The Abinit project: Impact, environment and recent developments.
- Computer Phys. Comm. 248, 107042 (2020).
- X.Gonze, B. Amadon, G. Antonius, F.Arnardi, L.Baguet, J.-M.Beuken,
- J.Bieder, F.Bottin, J.Bouchet, E.Bousquet, N.Brouwer, F.Bruneval,
- G.Brunin, T.Cavignac, J.-B. Charraud, Wei Chen, M.Cote, S.Cottenier,
- J.Denier, G.Geneste, Ph.Ghosez, M.Giantomassi, Y.Gillet, O.Gingras,
- D.R.Hamann, G.Hautier, Xu He, N.Helbig, N.Holzwarth, Y.Jia, F.Jollet,
- W.Lafargue-Dit-Hauret, K.Lejaeghere, M.A.L.Marques, A.Martin, C.Martins,
- H.P.C. Miranda, F.Naccarato, K. Persson, G.Petretto, V.Planes, Y.Pouillon,
- S.Prokhorenko, F.Ricci, G.-M.Rignanese, A.H.Romero, M.M.Schmitt, M.Torrent,
- M.J.van Setten, B.Van Troeye, M.J.Verstraete, G.Zerah and J.W.Zwanzig
- Comment: the fifth generic paper describing the ABINIT project.
- Note that a version of this paper, that is not formatted for Computer Phys. Comm. 
- is available at https://www.abinit.org/sites/default/files/ABINIT20.pdf .
- The licence allows the authors to put it on the Web.
- DOI and bibtex: see https://docs.abinit.org/theory/bibliography/#gonze2020
-
- [6] ABINIT: Overview, and focus on selected capabilities
- J. Chem. Phys. 152, 124102 (2020).
- A. Romero, D.C. Allan, B. Amadon, G. Antonius, T. Applencourt, L.Baguet,
- J.Bieder, F.Bottin, J.Bouchet, E.Bousquet, F.Bruneval,
- G.Brunin, D.Caliste, M.Cote,
- J.Denier, C. Dreyer, Ph.Ghosez, M.Giantomassi, Y.Gillet, O.Gingras,
- D.R.Hamann, G.Hautier, F.Jollet, G. Jomard,
- A.Martin, 
- H.P.C. Miranda, F.Naccarato, G.Petretto, N.A. Pike, V.Planes,
- S.Prokhorenko, T. Rangel, F.Ricci, G.-M.Rignanese, M.Royo, M.Stengel, M.Torrent,
- M.J.van Setten, B.Van Troeye, M.J.Verstraete, J.Wiktor, J.W.Zwanziger, and X.Gonze.
- Comment: a global overview of ABINIT, with focus on selected capabilities .
- Note that a version of this paper, that is not formatted for J. Chem. Phys 
- is available at https://www.abinit.org/sites/default/files/ABINIT20_JPC.pdf .
- The licence allows the authors to put it on the Web.
- DOI and bibtex: see https://docs.abinit.org/theory/bibliography/#romero2020
-
- [7] Recent developments in the ABINIT software package.
- Computer Phys. Comm. 205, 106 (2016).
- X.Gonze, F.Jollet, F.Abreu Araujo, D.Adams, B.Amadon, T.Applencourt,
- C.Audouze, J.-M.Beuken, J.Bieder, A.Bokhanchuk, E.Bousquet, F.Bruneval
- D.Caliste, M.Cote, F.Dahm, F.Da Pieve, M.Delaveau, M.Di Gennaro,
- B.Dorado, C.Espejo, G.Geneste, L.Genovese, A.Gerossier, M.Giantomassi,
- Y.Gillet, D.R.Hamann, L.He, G.Jomard, J.Laflamme Janssen, S.Le Roux,
- A.Levitt, A.Lherbier, F.Liu, I.Lukacevic, A.Martin, C.Martins,
- M.J.T.Oliveira, S.Ponce, Y.Pouillon, T.Rangel, G.-M.Rignanese,
- A.H.Romero, B.Rousseau, O.Rubel, A.A.Shukri, M.Stankovski, M.Torrent,
- M.J.Van Setten, B.Van Troeye, M.J.Verstraete, D.Waroquier, J.Wiktor,
- B.Xu, A.Zhou, J.W.Zwanziger.
- Comment: the fourth generic paper describing the ABINIT project.
- Note that a version of this paper, that is not formatted for Computer Phys. Comm. 
- is available at https://www.abinit.org/sites/default/files/ABINIT16.pdf .
- The licence allows the authors to put it on the Web.
- DOI and bibtex: see https://docs.abinit.org/theory/bibliography/#gonze2016
-
- Proc.   0 individual time (sec): cpu=        109.4  wall=        111.9
 
================================================================================
 
 Calculation completed.
.Delivered   0 WARNINGs and   0 COMMENTs to log file.
+Overall time at end (sec) : cpu=       4441.0  wall=       4468.5
